 PROCESS            0  OF            8  WORKING
 PROCESS            7  OF            8  WORKING

         
 *******************************************************************************
 *                                                                             *
 *                               CRYSTAL17                                     *
 *                      public : 1.0.1 - Feb 1st, 2017                         *
 *                       HTTP://WWW.CRYSTAL.UNITO.IT                           *
 *                                                                             *
 *                              MAIN AUTHORS                                   *
 *                                                                             *
 *  R. DOVESI(1,11), V.R. SAUNDERS(2), C. ROETTI(1,11), R. ORLANDO(1,11),      *
 *  C.M. ZICOVICH-WILSON(1,3), F. PASCALE(4), B. CIVALLERI(1,11),              *
 *  K. DOLL(5), N.M. HARRISON(2,6), I.J. BUSH(7), Ph. D'ARCO(8),               *
 *  M. LLUNELL(9), M. CAUSA'(10), Y. NOEL(8), L. MASCHIO(1,11), A. ERBA(1,11)  *
 *  M. RE'RAT(14), S. CASASSA(1,11)                                            *
 *                                                                             *
 *        CONTRIBUTIONS TO THE CODE HAVE ALSO BEEN GIVEN BY                    *
 *                                                                             *
 *  M. FERRABONE(1,11), M. DE LA PIERRE(1,11), M. FERRERO(1,11),               *
 *  J. BAIMA(1,11), E. ALBANESE(1,11), M.F. PEINTINGER(12), R. BAST(13),       *
 *  B. KIRTMAN(15), V. LACIVITA(1,11), R. DEMICHELIS(1,16)                     *
 *  G. BRANDEBURG(17), S. SALUSTRO(1,11), G. SANSONE(1,11)                     *
 *  M.T. RUGGIERO(18)                                                          *
 *                                                                             *
 * (1) THEORETICAL CHEMISTRY GROUP - UNIVERSITA' DI TORINO - TORINO (ITALY)    *

 * (2) COMPUTATIONAL SCIENCE & ENGINEERING DEPARTMENT - STFC DARESBURY (UK)    *
 * (3) UNIVERSIDAD AUTONOMA DEL ESTADO DE MORELOS - CUERNAVACA (MEXICO)        *
 * (4) UNIVERSITE' DE LORRAINE - NANCY (FRANCE)                                *
 * (5) UNIVERSITAET STUTTGART- STUTTGART (GERMANY)                             *
 * (6) IMPERIAL COLLEGE - LONDON (UK)                                          *
 * (7) OXFORD E-RESEARCH CENTRE - OXFORD (UK)                                  *
 * (8) UPMC - SORBONNE UNIVERSITES - PARIS (FRANCE)                            *
 * (9) UNIVERSIDAD DE BARCELONA - BARCELONA (SPAIN)                            *
 *(10) UNIVERSITA' DI NAPOLI "FEDERICO II" - NAPOLI (ITALY)                    *
 *(11) NIS - NANOSTRUCTURED INTERFACES AND SURFACES - TORINO (ITALY)           *
 *(12) MPI FUER CHEMISCHE ENERGIEKONVERSION - MUELHEIM AN DER RUHR (GERMANY)   *
 *(13) UNIVERSITY OF TROMSO - TROMSO (NORWAY)                                  *
 *(14) UNIVERSITE' DE PAU ET DES PAYS DE L'ADOUR - PAU (FRANCE)                *
 *(15) UNIVERSITY OF CALIFORNIA SANTA BARBARA - SANTA BARBARA (USA)            *
 *(16) CURTIN UNIVERSITY - PERTH (AUSTRALIA)                                   *
 *(17) UNIVERSITY COLLEGE LONDON - LONDON (UK)                                 *
 *(18) CAMBRIDGE UNIVERSITY - CAMBRIDGE (UK)                                   *
 *                                                                             *
 *******************************************************************************
 EEEEEEEEEE STARTING  DATE 25 03 2019 TIME 22:21:35.4
 PROCESS            5  OF            8  WORKING
 !drive by JGB                                                                   
 PROCESS            3  OF            8  WORKING
 PROCESS            6  OF            8  WORKING
 PROCESS            4  OF            8  WORKING

 CRYSTAL CALCULATION
 (INPUT ACCORDING TO THE INTERNATIONAL TABLES FOR X-RAY CRYSTALLOGRAPHY)
 CRYSTAL FAMILY                       :  MONOCLINIC  
 CRYSTAL CLASS  (GROTH - 1921)        :  MONOCLINIC DOMATIC                   

 SPACE GROUP (NONCENTROSYMMETRIC)     :  C C             

 LATTICE PARAMETERS  (ANGSTROMS AND DEGREES) - CONVENTIONAL CELL
        A           B           C        ALPHA        BETA       GAMMA
     7.93021     7.45614     6.20075    90.00000   125.73469    90.00000


 NUMBER OF IRREDUCIBLE ATOMS IN THE CONVENTIONAL CELL:    9

 INPUT COORDINATES

 ATOM AT. N.              COORDINATES
   1   8     7.680712177664E-01  1.587761395725E-01  7.607401238751E-01
   2   8     4.380417459586E-01  8.913689630128E-01  5.206966392856E-01
   3   8     1.252790471779E-01  1.149134183107E-01  5.007787661264E-01
   4   1     6.510868261209E-01  7.622537700450E-02  6.696143738331E-01
   5   1     8.899024557534E-01  8.285083614213E-02  8.556200327079E-01
   6   1     3.725384912138E-01  8.489142997510E-01  6.027577428059E-01
   7   1     5.107659705866E-01  7.840820569329E-01  5.167624145592E-01
   8   1     1.873830501430E-01  1.696708020005E-01  4.197407091335E-01
   9   1     2.403311952794E-01  9.949477756257E-02  6.904791976732E-01
 PROCESS            1  OF            8  WORKING
 PROCESS            2  OF            8  WORKING

 *******************************************************************************

 << INFORMATION >>: FROM NOW ON, ALL COORDINATES REFER TO THE PRIMITIVE CELL

 *******************************************************************************

 LATTICE PARAMETERS  (ANGSTROMS AND DEGREES) - PRIMITIVE CELL
       A          B          C        ALPHA      BETA     GAMMA        VOLUME
    5.44248    5.44248    6.20075    64.81794 115.18206  93.52962    148.807454

 COORDINATES OF THE EQUIVALENT ATOMS (FRACTIONAL UNITS)

 N. ATOM EQUIV AT. N.          X                  Y                  Z

   1   1   1    8 O    -7.31526426611E-02  3.90704921806E-01 -2.39259876125E-01
   2   1   2    8 O    -3.90704921806E-01  7.31526426611E-02  2.60740123875E-01

   3   2   1    8 O     3.29410708971E-01  4.53327217054E-01 -4.79303360714E-01
   4   2   2    8 O    -4.53327217054E-01 -3.29410708971E-01  2.06966392856E-02

   5   3   1    8 O     2.40192465489E-01 -1.03656288672E-02 -4.99221233874E-01
   6   3   2    8 O     1.03656288672E-02 -2.40192465489E-01  7.78766126400E-04

   7   4   1    1 H    -2.72687796875E-01  4.25138550884E-01 -3.30385626167E-01
   8   4   2    1 H    -4.25138550884E-01  2.72687796875E-01  1.69614373833E-01

   9   5   1    1 H    -2.72467081045E-02  1.92948380389E-01 -1.44379967292E-01
  10   5   2    1 H    -1.92948380389E-01  2.72467081045E-02  3.55620032708E-01

  11   6   1    1 H     2.21452790965E-01  4.76375808537E-01 -3.97242257194E-01
  12   6   2    1 H    -4.76375808537E-01 -2.21452790965E-01  1.02757742806E-01

  13   7   1    1 H     2.94848027520E-01  2.73316086346E-01 -4.83237585441E-01
  14   7   2    1 H    -2.73316086346E-01 -2.94848027520E-01  1.67624145592E-02

  15   8   1    1 H     3.57053852143E-01 -1.77122481425E-02  4.19740709133E-01
  16   8   2    1 H     1.77122481425E-02 -3.57053852143E-01 -8.02592908665E-02

  17   9   1    1 H     3.39825972842E-01 -1.40836417717E-01 -3.09520802327E-01
  18   9   2    1 H     1.40836417717E-01 -3.39825972842E-01  1.90479197673E-01

 NUMBER OF SYMMETRY OPERATORS         :    2
 *******************************************************************************
 * GEOMETRY EDITING - INPUT COORDINATES ARE GIVEN IN ANGSTROM         
 *******************************************************************************

 GEOMETRY NOW FULLY CONSISTENT WITH THE GROUP

 GCALCO - MAX INDICES DIRECT LATTICE VECTOR    15    15    14
 NO.OF VECTORS CREATED 6999 STARS 1832 RMAX   118.84977 BOHR

 GEOMETRY FOR WAVE FUNCTION - DIMENSIONALITY OF THE SYSTEM    3
 (NON PERIODIC DIRECTION: LATTICE PARAMETER FORMALLY SET TO 500)
 *******************************************************************************
 LATTICE PARAMETERS (ANGSTROMS AND DEGREES) - BOHR = 0.5291772083 ANGSTROM
 PRIMITIVE CELL - CENTRING CODE 4/0 VOLUME=   148.807454 - DENSITY  1.206 g/cm^3
         A              B              C           ALPHA      BETA       GAMMA 
     5.44247848     5.44247848     6.20074993    64.817939 115.182061  93.529623
 *******************************************************************************
 ATOMS IN THE ASYMMETRIC UNIT    9 - ATOMS IN THE UNIT CELL:   18
     ATOM                 X/A                 Y/B                 Z/C    
 *******************************************************************************
      1 T   8 O    -7.315264266110E-02  3.907049218061E-01 -2.392598761249E-01
      2 F   8 O    -3.907049218061E-01  7.315264266110E-02  2.607401238751E-01
      3 T   8 O     3.294107089714E-01  4.533272170542E-01 -4.793033607144E-01
      4 F   8 O    -4.533272170542E-01 -3.294107089714E-01  2.069663928560E-02
      5 T   8 O     2.401924654886E-01 -1.036562886720E-02 -4.992212338736E-01
      6 F   8 O     1.036562886720E-02 -2.401924654886E-01  7.787661264000E-04
      7 T   1 H    -2.726877968746E-01  4.251385508836E-01 -3.303856261669E-01
      8 F   1 H    -4.251385508836E-01  2.726877968746E-01  1.696143738331E-01
      9 T   1 H    -2.724670810447E-02  1.929483803887E-01 -1.443799672921E-01
     10 F   1 H    -1.929483803887E-01  2.724670810447E-02  3.556200327079E-01
     11 T   1 H     2.214527909648E-01  4.763758085372E-01 -3.972422571941E-01
     12 F   1 H    -4.763758085372E-01 -2.214527909648E-01  1.027577428059E-01
     13 T   1 H     2.948480275195E-01  2.733160863463E-01 -4.832375854408E-01
     14 F   1 H    -2.733160863463E-01 -2.948480275195E-01  1.676241455920E-02
     15 T   1 H     3.570538521435E-01 -1.771224814250E-02  4.197407091335E-01
     16 F   1 H     1.771224814250E-02 -3.570538521435E-01 -8.025929086650E-02
     17 T   1 H     3.398259728420E-01 -1.408364177168E-01 -3.095208023268E-01
     18 F   1 H     1.408364177168E-01 -3.398259728420E-01  1.904791976732E-01

 TRANSFORMATION MATRIX PRIMITIVE-CRYSTALLOGRAPHIC CELL
  1.0000  1.0000  0.0000 -1.0000  1.0000  0.0000  0.0000  0.0000  1.0000

 *******************************************************************************
 CRYSTALLOGRAPHIC CELL (VOLUME=        297.61490850)
         A              B              C           ALPHA      BETA       GAMMA 
     7.93021441     7.45613757     6.20074993    90.000000 125.734692  90.000000

 COORDINATES IN THE CRYSTALLOGRAPHIC CELL
     ATOM                 X/A                 Y/B                 Z/C    
 *******************************************************************************
      1 T   8 O    -2.319287822336E-01  1.587761395725E-01 -2.392598761249E-01
      2 F   8 O     2.680712177664E-01  3.412238604275E-01  2.607401238751E-01
      3 T   8 O     4.380417459586E-01 -1.086310369872E-01 -4.793033607144E-01
      4 F   8 O    -6.195825404140E-02 -3.913689630128E-01  2.069663928560E-02
      5 T   8 O     1.252790471779E-01  1.149134183107E-01 -4.992212338736E-01
      6 F   8 O     1.252790471779E-01 -1.149134183107E-01  7.787661264000E-04
      7 T   1 H    -3.489131738791E-01  7.622537700450E-02 -3.303856261669E-01
      8 F   1 H     1.510868261209E-01  4.237746229955E-01  1.696143738331E-01
      9 T   1 H    -1.100975442466E-01  8.285083614213E-02 -1.443799672921E-01
     10 F   1 H    -1.100975442466E-01 -8.285083614213E-02  3.556200327079E-01
     11 T   1 H    -1.274615087862E-01  3.489142997510E-01 -3.972422571941E-01
     12 F   1 H     3.725384912138E-01  1.510857002490E-01  1.027577428059E-01
     13 T   1 H    -4.892340294134E-01 -2.159179430671E-01 -4.832375854408E-01
     14 F   1 H     1.076597058660E-02 -2.840820569329E-01  1.676241455920E-02
     15 T   1 H     1.873830501430E-01  1.696708020005E-01  4.197407091335E-01
     16 F   1 H     1.873830501430E-01 -1.696708020005E-01 -8.025929086650E-02
     17 T   1 H     2.403311952794E-01  9.949477756257E-02 -3.095208023268E-01
     18 F   1 H     2.403311952794E-01 -9.949477756257E-02  1.904791976732E-01

 T = ATOM BELONGING TO THE ASYMMETRIC UNIT

 ****    2 SYMMOPS - TRANSLATORS IN FRACTIONAL UNITS
 **** MATRICES AND TRANSLATORS IN THE CRYSTALLOGRAPHIC REFERENCE FRAME
   V INV                    ROTATION MATRICES                   TRANSLATORS
   1   1  1.00  0.00  0.00  0.00  1.00  0.00  0.00  0.00  1.00  0.00  0.00  0.00
   2   2  0.00 -1.00 -0.00 -1.00  0.00  0.00  0.00  0.00  1.00  0.00  0.00  0.50

 DIRECT LATTICE VECTORS CARTESIAN COMPONENTS (ANGSTROM)
          X                    Y                    Z
   0.396510720500E+01   0.372806878500E+01   0.000000000000E+00
  -0.396510720500E+01   0.372806878500E+01   0.000000000000E+00
  -0.362144142127E+01   0.379686427704E-15   0.503333505011E+01


 CARTESIAN COORDINATES - PRIMITIVE CELL
 *******************************************************************************
 *      ATOM          X(ANGSTROM)         Y(ANGSTROM)         Z(ANGSTROM)
 *******************************************************************************
    1     8 O    -9.727793451155E-01  1.183856739486E+00 -1.204275120585E+00
    2     8 O     1.181607149248E+00  2.544212045514E+00  1.312392404471E+00
    3     8 O     1.588092588556E+00 -8.099679561483E-01  2.620840644992E+00
    4     8 O    -5.662939058075E-01 -2.918100828852E+00  1.041731199357E-01
    5     8 O    -8.200512613424E-01  8.568102555635E-01  2.520587315896E+00
    6     8 O     9.906694492936E-01 -8.568102555635E-01  3.919790839850E-03
    7     1 H    -1.570484087741E+00  5.683468972707E-01 -1.662941552239E+00
    8     1 H     5.839024066228E-01  3.159721887729E+00  8.537259728170E-01
    9     1 H    -3.502335379365E-01  6.177472320652E-01 -7.267127499054E-01
   10     1 H    -2.160954248573E+00 -6.177472320652E-01  1.789954775151E+00
   11     1 H     4.277924707856E-01  2.601553019084E+00 -1.999453376521E+00
   12     1 H     2.582178965150E+00  1.126515765916E+00  5.172141485354E-01
   13     1 H    -2.129714141686E+00 -1.609913887340E+00 -2.432296676331E+00
   14     1 H     2.467235267827E-02 -2.118154897660E+00  8.437084872534E-02
   15     1 H    -3.407862581638E-02  1.265088841328E+00  2.112695623241E+00
   16     1 H     1.776642084820E+00 -1.265088841328E+00 -4.039719018155E-01
   17     1 H     3.026789362269E+00  7.418467490031E-01 -1.557921903090E+00
   18     1 H     1.216068651633E+00 -7.418467490031E-01  9.587456219658E-01

 *******************************************************************************
 STARTING BASIS SET HANDLING 
 *******************************************************************************

 Loading internal basis set: DEF2-MSVP           

 Please cite in your publication:
 Fully Optimized Contracted Gaussian Basis Sets for Atoms Li to Kr. A. Schäfer, 
 H. Horn and R. Ahlrichs; J. Chem. Phys. 97, 2571 (1992).                       
                                                                                
                    
 S. Grimme, J. G. Brandenburg, C. Bannwarth, and A. Hansen, J. Chem. Phys., 143,
  054107 (2015).                                                                
                                                                                
                    

 *******************************************************************************
 LOCAL ATOMIC FUNCTIONS BASIS SET
 *******************************************************************************
   ATOM   X(AU)   Y(AU)   Z(AU)  N. TYPE  EXPONENT  S COEF   P COEF   D/F/G COEF
 *******************************************************************************
   1 O   -1.838   2.237  -2.276
                                  1 S  
                                         6.773E+03 1.727E-03 0.000E+00 0.000E+00
                                         1.017E+03 1.325E-02 0.000E+00 0.000E+00
                                         2.313E+02 6.603E-02 0.000E+00 0.000E+00
                                         6.501E+01 2.353E-01 0.000E+00 0.000E+00
                                         2.050E+01 5.498E-01 0.000E+00 0.000E+00
                                  2 S  
                                         6.716E+00 1.000E+00 0.000E+00 0.000E+00
                                  3 S  
                                         1.147E+00 1.000E+00 0.000E+00 0.000E+00
                                  4 S  
                                         3.342E-01 1.000E+00 0.000E+00 0.000E+00
                           5-     7 P  
                                         1.769E+01 0.000E+00 4.359E-02 0.000E+00
                                         3.854E+00 0.000E+00 2.318E-01 0.000E+00
                                         1.047E+00 0.000E+00 5.146E-01 0.000E+00
                           8-    10 P  
                                         2.759E-01 0.000E+00 1.000E+00 0.000E+00
                          11-    15 D  
                                         8.000E-01 0.000E+00 0.000E+00 1.000E+00
   2 O    2.233   4.808   2.480
   3 O    3.001  -1.531   4.953
   4 O   -1.070  -5.514   0.197
   5 O   -1.550   1.619   4.763
   6 O    1.872  -1.619   0.007
   7 H   -2.968   1.074  -3.143
                                 91 S  
                                         1.874E+01 1.968E-02 0.000E+00 0.000E+00
                                         2.826E+00 1.380E-01 0.000E+00 0.000E+00
                                         6.401E-01 4.783E-01 0.000E+00 0.000E+00
                                 92 S  
                                         1.756E-01 1.000E+00 0.000E+00 0.000E+00
   8 H    1.103   5.971   1.613
   9 H   -0.662   1.167  -1.373
  10 H   -4.084  -1.167   3.383
  11 H    0.808   4.916  -3.778
  12 H    4.880   2.129   0.977
  13 H   -4.025  -3.042  -4.596
  14 H    0.047  -4.003   0.159
  15 H   -0.064   2.391   3.992
  16 H    3.357  -2.391  -0.763
  17 H    5.720   1.402  -2.944
  18 H    2.298  -1.402   1.812

 *******************************************************************************
 FINISHED BASIS SET HANDLING 
 *******************************************************************************

 INFORMATION **** SET_MPP **** PCRYSTAL CALCULATION
 INFORMATION **** READM2 **** NEW DEFAULT: FOCK/KS MATRIX MIXING SET TO 30 %
 INFORMATION **** READM2 **** NEW DEFAULT: FULL DIRECT SCF MODE
 INFORMATION **** READM2 **** NEW DEFAULT: COULOMB BIPOLAR BUFFER SET TO 32 Mb
 INFORMATION **** READM2 **** NEW DEFAULT: EXCHANGE BIPOLAR BUFFER SET TO 32 Mb

 *******************************************************************************
 NEW DEFAULT: DFT INTEGRATION GRID INCREASED TO XLGRID
 NEW DEFAULT: DIIS ACCELERATOR ACTIVE
 USE KEYWORD NODIIS TO TURN IT OFF
 *******************************************************************************

 INFORMATION **** RDDFTP **** HSE-3c calculation
 INFORMATION **** RDDFTP **** HSE screened hybrid functional combined with D3 and gCP

PLEASE CITE:
(1) HSE-3c Reference
 J. G. Brandenburg, E. Caldeweyer, and S. Grimme, 
 Phys. Chem. Chem. Phys. 18, 15519 (2016)
(2) DFT-D3 Reference
 S. Grimme, J. Antony, S. Ehrlich,
 and H. Krieg, J. Chem. Phys. 132, 154104 (2010)
(3) gCP Reference
 H. Kruse and S. Grimme J. Chem. Phys, 136, 154101 (2012)
 J. G. Brandenburg, M. Alessio, B. Civalleri, M. F. Peintinger
 T. Bredow, and S. Grimme, J. Phys. Chem. A, 117, 9282 (2013) 

 WARNING **** RDDFTP **** HSE3c-HJS ACTIVE
 RANGE SEPARATION - OMEGA:   0.110000000000000     
 WARNING **** RDDFTP **** HSE-3c has to be combined with def2-mSVP basis set
 WARNING **** RDDFTP **** Note: Harmonic frequencies are scaled by 0.95
 WARNING **** RDDFTP **** as recommended in original publication
 INFORMATION **** BIPOSIZE **** COULOMB BIPOLAR BUFFER SET TO    60000000
 INFORMATION **** EXCHSIZE **** EXCHANGE BIPOLAR BUFFER SIZE SET TO    40000000
 *******************************************************************************
 N. OF ATOMS PER CELL        18  COULOMB OVERLAP TOL         (T1) 10**   -6
 NUMBER OF SHELLS            66  COULOMB PENETRATION TOL     (T2) 10**   -6
 NUMBER OF AO               114  EXCHANGE OVERLAP TOL        (T3) 10**   -6
 N. OF ELECTRONS PER CELL    60  EXCHANGE PSEUDO OVP (F(G))  (T4) 10**   -6
 CORE ELECTRONS PER CELL     12  EXCHANGE PSEUDO OVP (P(G))  (T5) 10**  -12
 N. OF SYMMETRY OPERATORS     2  POLE ORDER IN MONO ZONE                  4
 *******************************************************************************
 TYPE OF CALCULATION :  RESTRICTED CLOSED SHELL
 KOHN-SHAM HAMILTONIAN

 (EXCHANGE)[CORRELATION] FUNCTIONAL:(HSE-3c)[PBEh-3c]

 RANGE-SEPARATED HYBRID FUNCTIONAL 
 OMEGA (SHORT-RANGE)[LONG-RANGE]:(    0.1100)[    0.0000]

 HYBRID EXCHANGE - PERCENTAGE OF FOCK EXCHANGE    42.0000

 CAPPA:IS1  3;IS2  3;IS3  3; K PTS MONK NET  10; SYMMOPS:K SPACE   4;G SPACE   2

 *******************************************************************************
 MAX NUMBER OF SCF CYCLES      50  CONVERGENCE ON DELTAP        10**-16
 WEIGHT OF F(I) IN F(I+1)      30% CONVERGENCE ON ENERGY        10**- 6
 S(K) EIGENV. THRESHOLD  10*10.**-4
 SHRINK. FACT.(MONKH.)    3  3  3  NUMBER OF K POINTS IN THE IBZ     10
 SHRINKING FACTOR(GILAT NET)    3  NUMBER OF K POINTS(GILAT NET)     10
 *******************************************************************************
 *** K POINTS COORDINATES (OBLIQUE COORDINATES IN UNITS OF IS =  3)
   1-R(  0  0  0)   2-C(  1  0  0)   3-C(  1  1  0)   4-C(  2  1  0)
   5-C(  0  0  1)   6-C(  1  0  1)   7-C(  2  0  1)   8-C(  1  1  1)
   9-C(  2  1  1)  10-C(  1  2  1)

 DIRECT LATTICE VECTORS COMPON. (A.U.)     RECIP. LATTICE VECTORS COMPON. (A.U.) 
        X            Y            Z              X            Y            Z
    7.4929667    7.0450290    0.0000000      0.4192722    0.4459304    0.3016628
   -7.4929667    7.0450290    0.0000000     -0.4192722    0.4459304   -0.3016628
   -6.8435325    0.0000000    9.5116248      0.0000000    0.0000000    0.6605796

 DISK SPACE FOR EIGENVECTORS (FTN 10)      246924 REALS

 SYMMETRY ADAPTION OF THE BLOCH FUNCTIONS ENABLED
 TTTTTTTTTTTTTTTTTTTTTTTTTTTTTT gordsh1     TELAPSE        0.10 TCPU        0.04

 MATRIX SIZE: P(G)   70802, F(G)   12368, P(G) IRR   18471, F(G) IRR    6317
 MAX G-VECTOR INDEX FOR 1- AND 2-ELECTRON INTEGRALS 105

 TTTTTTTTTTTTTTTTTTTTTTTTTTTTTT INPUT       TELAPSE        0.11 TCPU        0.04

 NEIGHBORS OF THE NON-EQUIVALENT ATOMS

 N = NUMBER OF NEIGHBORS AT DISTANCE R
    ATOM  N     R/ANG      R/AU   NEIGHBORS (ATOM LABELS AND CELL INDICES)
   1 O    1     0.9675     1.8284    9 H    0 0 0
   1 O    1     0.9729     1.8385    7 H    0 0 0
   1 O    1     1.9377     3.6617   16 H    0 1 0
   1 O    1     2.1456     4.0547   11 H    0 0 0
   1 O    1     2.8833     5.4487    6 O    0 1 0
   1 O    1     2.9138     5.5063    3 O   -1 1-1

   3 O    1     0.9683     1.8299   11 H    0-1 1
   3 O    1     0.9948     1.8798   13 H    1-1 1
   3 O    1     1.7046     3.2212   18 H    0 0 0
   3 O    1     1.9454     3.6762    7 H    1-1 1
   3 O    1     2.5852     4.8853    5 O    0-1 0
   3 O    1     2.6824     5.0691   15 H    0 0 0

   5 O    1     0.9751     1.8427   15 H    0 0 0
   5 O    1     0.9878     1.8666   17 H    0 0 1
   5 O    1     1.5908     3.0062   13 H    1 0 1
   5 O    1     2.1228     4.0115   10 H    0 0 0
   5 O    1     2.5852     4.8853    3 O    0 1 0
   5 O    1     2.5942     4.9024   11 H    0-1 1

   7 H    1     0.9729     1.8385    1 O    0 0 0
   7 H    1     1.5388     2.9080    9 H    0 0 0
   7 H    1     1.9454     3.6762    3 O   -1 1-1
   7 H    1     2.3572     4.4545   16 H    0 1 0
   7 H    1     2.3769     4.4916   13 H    0 0 0
   7 H    1     2.6181     4.9474   11 H   -1 0 0

   9 H    1     0.9675     1.8284    1 O    0 0 0
   9 H    1     1.5388     2.9080    7 H    0 0 0
   9 H    1     2.1228     4.0115    6 O    0 0 0
   9 H    1     2.4821     4.6904   11 H    0 0 0
   9 H    1     2.6245     4.9596   16 H    0 1 0
   9 H    1     2.6726     5.0504   18 H    0 0 0

  11 H    1     0.9683     1.8299    3 O    0 1-1
  11 H    1     1.5500     2.9290   13 H    1 0 0
  11 H    1     2.1456     4.0547    1 O    0 0 0
  11 H    1     2.1568     4.0758   18 H    0 1-1
  11 H    1     2.3563     4.4527   17 H    0 1 0
  11 H    1     2.4821     4.6904    9 H    0 0 0

  13 H    1     0.9948     1.8798    3 O   -1 1-1
  13 H    1     1.5500     2.9290   11 H   -1 0 0
  13 H    1     1.5908     3.0062    5 O   -1 0-1
  13 H    1     2.0089     3.7962   15 H   -1 0-1
  13 H    1     2.0195     3.8162   17 H   -1 0 0
  13 H    1     2.0924     3.9540   18 H   -1 1-1

  15 H    1     0.9751     1.8427    5 O    0 0 0
  15 H    1     1.5637     2.9549   17 H    0 0 1
  15 H    1     1.9377     3.6617    2 O    0 0 0
  15 H    1     2.0089     3.7962   13 H    1 0 1
  15 H    1     2.3572     4.4545    8 H    0 0 0
  15 H    1     2.6245     4.9596   10 H    1 0 0

  17 H    1     0.9878     1.8666    5 O    0 0-1
  17 H    1     1.5637     2.9549   15 H    0 0-1
  17 H    1     1.7046     3.2212    4 O    1 0 0
  17 H    1     2.0195     3.8162   13 H    1 0 0
  17 H    1     2.0924     3.9540   14 H    1 0 0
  17 H    1     2.1568     4.0758   12 H    0 0 0


 SYMMETRY ALLOWED INTERNAL DEGREE(S) OF FREEDOM:  25
 TTTTTTTTTTTTTTTTTTTTTTTTTTTTTT SYMM        TELAPSE        0.42 TCPU        0.35
 TTTTTTTTTTTTTTTTTTTTTTTTTTTTTT INT_SCREEN  TELAPSE        0.42 TCPU        0.36

 DFT PARAMETERS

     ATOM       ELECTRONS   NET CHARGE   R(ANGSTROM)
   1   8  O       8.0000      0.0000     0.74000000
   7   1  H       1.0000      0.0000     1.11000000

 SIZE OF GRID=     198959
 TTTTTTTTTTTTTTTTTTTTTTTTTTTTTT MAKE_GRID2  TELAPSE        5.39 TCPU        5.20
 BECKE WEIGHT FUNCTION
 RADSAFE =     2.00
 TOLERANCES - DENSITY:10**- 6; POTENTIAL:10**- 9; GRID WGT:10**-14

 RADIAL INTEGRATION  - INTERVALS (POINTS,UPPER LIMIT):            1( 75,  4.0*R)

 ANGULAR INTEGRATION - INTERVALS (ACCURACY LEVEL [N. POINTS] UPPER LIMIT):
  1(  4[  86]   0.2)  2(  8[ 194]   0.5)  3( 12[ 350]   0.9)  4( 16[ 974]   3.5)
  5( 12[ 350]9999.0)
 TTTTTTTTTTTTTTTTTTTTTTTTTTTTTT INT_CALC    TELAPSE        5.41 TCPU        5.22
 EEEEEEEEEE INT_CALC TERMINATION  DATE 25 03 2019 TIME 22:21:40.7

 *******************************************************************************
 !drive by JGB                                                                   
 CRYSTAL - SCF - TYPE OF CALCULATION :  RESTRICTED CLOSED SHELL
 *******************************************************************************

 CAPPA:IS1  3;IS2  3;IS3  3; K PTS MONK NET  10; SYMMOPS:K SPACE   4;G SPACE   2

 TTTTTTTTTTTTTTTTTTTTTTTTTTTTTT SDIK        TELAPSE        5.48 TCPU        5.26

 AAAAAAAAAAAAAAAAAAAAAAAAAAAAAAAAAAAAAAAAAAAAAAAAAAAAAAAAAAAAAAAAAAAAAAAAAAAAAAA
         ATOMIC WAVEFUNCTION(S)


 NUCLEAR CHARGE  8.0  SYMMETRY SPECIES            S    P
 N. ELECTRONS    8.0  NUMBER OF PRIMITIVE GTOS    8    4
                      NUMBER OF CONTRACTED GTOS   4    2
                      NUMBER OF CLOSED SHELLS     2    0
                      OPEN SHELL OCCUPATION       0    4

  ZNUC SCFIT  TOTAL HF ENERGY   KINETIC ENERGY   VIRIAL THEOREM ACCURACY
   8.0  12   -7.477373220E+01  7.477365593E+01 -2.000001020E+00  3.8E-06

 NUCLEAR CHARGE  1.0  SYMMETRY SPECIES            S
 N. ELECTRONS    1.0  NUMBER OF PRIMITIVE GTOS    4
                      NUMBER OF CONTRACTED GTOS   2
                      NUMBER OF CLOSED SHELLS     0
                      OPEN SHELL OCCUPATION       1

  ZNUC SCFIT  TOTAL HF ENERGY   KINETIC ENERGY   VIRIAL THEOREM ACCURACY
   1.0   1   -4.977266687E-01  5.190767460E-01 -1.958869132E+00  1.8E-16

 AAAAAAAAAAAAAAAAAAAAAAAAAAAAAAAAAAAAAAAAAAAAAAAAAAAAAAAAAAAAAAAAAAAAAAAAAAAAAAA

 CHARGE NORMALIZATION FACTOR   1.00000000
 TOTAL ATOMIC CHARGES:
   8.0000000   8.0000000   8.0000000   8.0000000   8.0000000   8.0000000
   1.0000000   1.0000000   1.0000000   1.0000000   1.0000000   1.0000000
   1.0000000   1.0000000   1.0000000   1.0000000   1.0000000   1.0000000
 TTTTTTTTTTTTTTTTTTTTTTTTTTTTTT MOQGAD      TELAPSE        5.73 TCPU        5.51
 TTTTTTTTTTTTTTTTTTTTTTTTTTTTTT SHELLXN     TELAPSE       11.21 TCPU       10.71
 TTTTTTTTTTTTTTTTTTTTTTTTTTTTTT MONMO3      TELAPSE       11.51 TCPU       11.01
 NUMERICALLY INTEGRATED DENSITY     59.9999837004
 TTTTTTTTTTTTTTTTTTTTTTTTTTTTTT NUMDFT      TELAPSE       11.88 TCPU       11.38
 CYC   0 ETOT(AU) -4.578571892948E+02 DETOT -4.58E+02 tst  0.00E+00 PX  1.00E+00
 TTTTTTTTTTTTTTTTTTTTTTTTTTTTTT DIIS        TELAPSE       11.89 TCPU       11.38
 TTTTTTTTTTTTTTTTTTTTTTTTTTTTTT FDIK        TELAPSE       12.18 TCPU       11.44
 INSULATING STATE
 TOP OF VALENCE BANDS -    BAND     30; K    1; EIG -4.0987466E-01 AU
 BOTTOM OF VIRTUAL BANDS - BAND     31; K    1; EIG -1.0174067E-01 AU
 DIRECT ENERGY BAND GAP:   8.3848 eV
 TTTTTTTTTTTTTTTTTTTTTTTTTTTTTT PDIG        TELAPSE       12.19 TCPU       11.45
 CHARGE NORMALIZATION FACTOR   1.00000000
 TOTAL ATOMIC CHARGES:
   9.0720696   9.0720696   9.0676719   9.0676719   9.0617719   9.0617719
   0.4647973   0.4647973   0.4647860   0.4647860   0.4649609   0.4649609
   0.4769294   0.4769294   0.4617822   0.4617822   0.4652309   0.4652309
 TTTTTTTTTTTTTTTTTTTTTTTTTTTTTT MOQGAD      TELAPSE       12.20 TCPU       11.45
 TTTTTTTTTTTTTTTTTTTTTTTTTTTTTT SHELLXN     TELAPSE       17.74 TCPU       16.77
 TTTTTTTTTTTTTTTTTTTTTTTTTTTTTT MONMO3      TELAPSE       18.20 TCPU       17.23
 NUMERICALLY INTEGRATED DENSITY     59.9999843035
 TTTTTTTTTTTTTTTTTTTTTTTTTTTTTT NUMDFT      TELAPSE       19.11 TCPU       18.14
 CYC   1 ETOT(AU) -4.575900418337E+02 DETOT  2.67E-01 tst  0.00E+00 PX  1.00E+00
 TTTTTTTTTTTTTTTTTTTTTTTTTTTTTT DIIS        TELAPSE       19.14 TCPU       18.17
 DIIS TEST: 0.67010E+00 AT SCF   CYCLE   1 - MIX   30 %
 TTTTTTTTTTTTTTTTTTTTTTTTTTTTTT FDIK        TELAPSE       19.21 TCPU       18.24
 INSULATING STATE
 TOP OF VALENCE BANDS -    BAND     30; K    1; EIG -3.1140592E-01 AU
 BOTTOM OF VIRTUAL BANDS - BAND     31; K    1; EIG -4.2446593E-02 AU
 DIRECT ENERGY BAND GAP:   7.3188 eV
 TTTTTTTTTTTTTTTTTTTTTTTTTTTTTT PDIG        TELAPSE       19.22 TCPU       18.24
 CHARGE NORMALIZATION FACTOR   1.00000000
 TOTAL ATOMIC CHARGES:
   8.8242311   8.8242311   8.8440341   8.8440341   8.8521719   8.8521719
   0.5834688   0.5834688   0.5882911   0.5882911   0.5839748   0.5839748
   0.5818329   0.5818329   0.5723283   0.5723283   0.5696670   0.5696670
 TTTTTTTTTTTTTTTTTTTTTTTTTTTTTT MOQGAD      TELAPSE       19.22 TCPU       18.25
 TTTTTTTTTTTTTTTTTTTTTTTTTTTTTT SHELLXN     TELAPSE       24.67 TCPU       23.57
 TTTTTTTTTTTTTTTTTTTTTTTTTTTTTT MONMO3      TELAPSE       25.25 TCPU       24.08
 NUMERICALLY INTEGRATED DENSITY     59.9999836676
 TTTTTTTTTTTTTTTTTTTTTTTTTTTTTT NUMDFT      TELAPSE       26.10 TCPU       24.84
 CYC   2 ETOT(AU) -4.577243762510E+02 DETOT -1.34E-01 tst  3.00E-03 PX  1.33E-01
 TTTTTTTTTTTTTTTTTTTTTTTTTTTTTT DIIS        TELAPSE       26.22 TCPU       24.96
 DIIS TEST: 0.15007E+00 AT SCF   CYCLE   2 - DIIS ACTIVE - HISTORY:     2 CYCLES
 TTTTTTTTTTTTTTTTTTTTTTTTTTTTTT FDIK        TELAPSE       26.25 TCPU       24.97
 INSULATING STATE
 TOP OF VALENCE BANDS -    BAND     30; K    1; EIG -3.5927161E-01 AU
 BOTTOM OF VIRTUAL BANDS - BAND     31; K    1; EIG -4.5492570E-02 AU
 DIRECT ENERGY BAND GAP:   8.5384 eV
 TTTTTTTTTTTTTTTTTTTTTTTTTTTTTT PDIG        TELAPSE       26.27 TCPU       24.99
 CHARGE NORMALIZATION FACTOR   1.00000000
 TOTAL ATOMIC CHARGES:
   8.9121553   8.9121553   8.9203171   8.9203171   8.9221387   8.9221387
   0.5412833   0.5412833   0.5475632   0.5475632   0.5458199   0.5458199
   0.5420651   0.5420651   0.5364971   0.5364971   0.5321603   0.5321603
 TTTTTTTTTTTTTTTTTTTTTTTTTTTTTT MOQGAD      TELAPSE       26.27 TCPU       24.99
 TTTTTTTTTTTTTTTTTTTTTTTTTTTTTT SHELLXN     TELAPSE       31.73 TCPU       30.32
 TTTTTTTTTTTTTTTTTTTTTTTTTTTTTT MONMO3      TELAPSE       32.20 TCPU       30.79
 NUMERICALLY INTEGRATED DENSITY     59.9999839943
 TTTTTTTTTTTTTTTTTTTTTTTTTTTTTT NUMDFT      TELAPSE       33.14 TCPU       31.73
 CYC   3 ETOT(AU) -4.577644696584E+02 DETOT -4.01E-02 tst  2.82E-04 PX  4.98E-02
 TTTTTTTTTTTTTTTTTTTTTTTTTTTTTT DIIS        TELAPSE       33.16 TCPU       31.74
 DIIS TEST: 0.88823E-03 AT SCF   CYCLE   3 - DIIS ACTIVE - HISTORY:     3 CYCLES
 TTTTTTTTTTTTTTTTTTTTTTTTTTTTTT FDIK        TELAPSE       33.19 TCPU       31.77
 INSULATING STATE
 TOP OF VALENCE BANDS -    BAND     30; K    1; EIG -3.5786617E-01 AU
 BOTTOM OF VIRTUAL BANDS - BAND     31; K    1; EIG -4.2878479E-02 AU
 DIRECT ENERGY BAND GAP:   8.5713 eV
 TTTTTTTTTTTTTTTTTTTTTTTTTTTTTT PDIG        TELAPSE       33.20 TCPU       31.78
 CHARGE NORMALIZATION FACTOR   1.00000000
 TOTAL ATOMIC CHARGES:
   8.9000622   8.9000622   8.9192781   8.9192781   8.9250513   8.9250513
   0.5456351   0.5456351   0.5521870   0.5521870   0.5475078   0.5475078
   0.5415157   0.5415157   0.5371648   0.5371648   0.5315981   0.5315981
 TTTTTTTTTTTTTTTTTTTTTTTTTTTTTT MOQGAD      TELAPSE       33.20 TCPU       31.78
 TTTTTTTTTTTTTTTTTTTTTTTTTTTTTT SHELLXN     TELAPSE       38.66 TCPU       37.10
 TTTTTTTTTTTTTTTTTTTTTTTTTTTTTT MONMO3      TELAPSE       39.20 TCPU       37.65
 NUMERICALLY INTEGRATED DENSITY     59.9999840023
 TTTTTTTTTTTTTTTTTTTTTTTTTTTTTT NUMDFT      TELAPSE       40.03 TCPU       38.47
 CYC   4 ETOT(AU) -4.577646237745E+02 DETOT -1.54E-04 tst  2.34E-06 PX  5.32E-03
 TTTTTTTTTTTTTTTTTTTTTTTTTTTTTT DIIS        TELAPSE       40.04 TCPU       38.48
 DIIS TEST: 0.19396E-03 AT SCF   CYCLE   4 - DIIS ACTIVE - HISTORY:     4 CYCLES
 TTTTTTTTTTTTTTTTTTTTTTTTTTTTTT FDIK        TELAPSE       40.07 TCPU       38.50
 INSULATING STATE
 TOP OF VALENCE BANDS -    BAND     30; K    1; EIG -3.5679893E-01 AU
 BOTTOM OF VIRTUAL BANDS - BAND     31; K    1; EIG -4.2591208E-02 AU
 DIRECT ENERGY BAND GAP:   8.5500 eV
 TTTTTTTTTTTTTTTTTTTTTTTTTTTTTT PDIG        TELAPSE       40.07 TCPU       38.50
 CHARGE NORMALIZATION FACTOR   1.00000000
 TOTAL ATOMIC CHARGES:
   8.9052121   8.9052121   8.9176676   8.9176676   8.9205042   8.9205042
   0.5441272   0.5441272   0.5506590   0.5506590   0.5479349   0.5479349
   0.5426444   0.5426444   0.5382264   0.5382264   0.5330243   0.5330243
 TTTTTTTTTTTTTTTTTTTTTTTTTTTTTT MOQGAD      TELAPSE       40.07 TCPU       38.51
 TTTTTTTTTTTTTTTTTTTTTTTTTTTTTT SHELLXN     TELAPSE       45.63 TCPU       43.83
 TTTTTTTTTTTTTTTTTTTTTTTTTTTTTT MONMO3      TELAPSE       45.98 TCPU       44.18
 NUMERICALLY INTEGRATED DENSITY     59.9999839984
 TTTTTTTTTTTTTTTTTTTTTTTTTTTTTT NUMDFT      TELAPSE       46.80 TCPU       45.00
 CYC   5 ETOT(AU) -4.577646665290E+02 DETOT -4.28E-05 tst  8.41E-07 PX  2.45E-03
 TTTTTTTTTTTTTTTTTTTTTTTTTTTTTT DIIS        TELAPSE       46.81 TCPU       45.01
 DIIS TEST: 0.32337E-04 AT SCF   CYCLE   5 - DIIS ACTIVE - HISTORY:     5 CYCLES
 TTTTTTTTTTTTTTTTTTTTTTTTTTTTTT FDIK        TELAPSE       46.84 TCPU       45.01
 INSULATING STATE
 TOP OF VALENCE BANDS -    BAND     30; K    1; EIG -3.5707222E-01 AU
 BOTTOM OF VIRTUAL BANDS - BAND     31; K    1; EIG -4.2477978E-02 AU
 DIRECT ENERGY BAND GAP:   8.5605 eV
 TTTTTTTTTTTTTTTTTTTTTTTTTTTTTT PDIG        TELAPSE       46.85 TCPU       45.02
 CHARGE NORMALIZATION FACTOR   1.00000000
 TOTAL ATOMIC CHARGES:
   8.9036217   8.9036217   8.9179416   8.9179416   8.9218960   8.9218960
   0.5446248   0.5446248   0.5511584   0.5511584   0.5478419   0.5478419
   0.5424618   0.5424618   0.5378716   0.5378716   0.5325822   0.5325822
 TTTTTTTTTTTTTTTTTTTTTTTTTTTTTT MOQGAD      TELAPSE       46.85 TCPU       45.02
 TTTTTTTTTTTTTTTTTTTTTTTTTTTTTT SHELLXN     TELAPSE       52.28 TCPU       50.34
 TTTTTTTTTTTTTTTTTTTTTTTTTTTTTT MONMO3      TELAPSE       52.80 TCPU       50.86
 NUMERICALLY INTEGRATED DENSITY     59.9999839993
 TTTTTTTTTTTTTTTTTTTTTTTTTTTTTT NUMDFT      TELAPSE       53.62 TCPU       51.68
 CYC   6 ETOT(AU) -4.577646746709E+02 DETOT -8.14E-06 tst  6.08E-08 PX  7.54E-04
 TTTTTTTTTTTTTTTTTTTTTTTTTTTTTT DIIS        TELAPSE       53.64 TCPU       51.70
 DIIS TEST: 0.43106E-06 AT SCF   CYCLE   6 - DIIS ACTIVE - HISTORY:     6 CYCLES
 TTTTTTTTTTTTTTTTTTTTTTTTTTTTTT FDIK        TELAPSE       53.69 TCPU       51.70
 INSULATING STATE
 TOP OF VALENCE BANDS -    BAND     30; K    1; EIG -3.5703714E-01 AU
 BOTTOM OF VIRTUAL BANDS - BAND     31; K    1; EIG -4.2464635E-02 AU
 DIRECT ENERGY BAND GAP:   8.5600 eV
 TTTTTTTTTTTTTTTTTTTTTTTTTTTTTT PDIG        TELAPSE       53.69 TCPU       51.71
 CHARGE NORMALIZATION FACTOR   1.00000000
 TOTAL ATOMIC CHARGES:
   8.9036001   8.9036001   8.9180573   8.9180573   8.9216790   8.9216790
   0.5446288   0.5446288   0.5511779   0.5511779   0.5478348   0.5478348
   0.5424336   0.5424336   0.5379525   0.5379525   0.5326359   0.5326359
 TTTTTTTTTTTTTTTTTTTTTTTTTTTTTT MOQGAD      TELAPSE       53.70 TCPU       51.71
 TTTTTTTTTTTTTTTTTTTTTTTTTTTTTT SHELLXN     TELAPSE       59.09 TCPU       57.03
 TTTTTTTTTTTTTTTTTTTTTTTTTTTTTT MONMO3      TELAPSE       59.63 TCPU       57.58
 NUMERICALLY INTEGRATED DENSITY     59.9999839990
 TTTTTTTTTTTTTTTTTTTTTTTTTTTTTT NUMDFT      TELAPSE       60.46 TCPU       58.40
 CYC   7 ETOT(AU) -4.577646746840E+02 DETOT -1.31E-08 tst  1.35E-09 PX  1.10E-04
 TTTTTTTTTTTTTTTTTTTTTTTTTTTTTT DIIS        TELAPSE       60.48 TCPU       58.42
 DIIS TEST: 0.93671E-07 AT SCF   CYCLE   7 - DIIS ACTIVE - HISTORY:     7 CYCLES
 TTTTTTTTTTTTTTTTTTTTTTTTTTTTTT FDIK        TELAPSE       60.50 TCPU       58.42
 INSULATING STATE
 TOP OF VALENCE BANDS -    BAND     30; K    1; EIG -3.5704531E-01 AU
 BOTTOM OF VIRTUAL BANDS - BAND     31; K    1; EIG -4.2464485E-02 AU
 DIRECT ENERGY BAND GAP:   8.5602 eV
 TTTTTTTTTTTTTTTTTTTTTTTTTTTTTT PDIG        TELAPSE       60.51 TCPU       58.44
 CHARGE NORMALIZATION FACTOR   1.00000000
 TOTAL ATOMIC CHARGES:
   8.9036379   8.9036379   8.9178955   8.9178955   8.9217945   8.9217945
   0.5446256   0.5446256   0.5511635   0.5511635   0.5478780   0.5478780
   0.5424679   0.5424679   0.5379170   0.5379170   0.5326201   0.5326201
 TTTTTTTTTTTTTTTTTTTTTTTTTTTTTT MOQGAD      TELAPSE       60.52 TCPU       58.44
 TTTTTTTTTTTTTTTTTTTTTTTTTTTTTT SHELLXN     TELAPSE       65.95 TCPU       63.76
 +++ ENERGIES IN A.U. +++
 ::: EXT EL-POLE                                  -4.9997975721834E+02
 ::: EXT EL-SPHEROPOLE                             5.9709038837416E+00
 ::: BIELET ZONE E-E                               6.1525818045720E+02
 ::: TOTAL E-E                                     1.2124932712260E+02
 ::: TOTAL E-N + N-E                              -9.0577019873704E+02
 ::: TOTAL N-N                                    -9.3791686851239E+01
 ::: KINETIC ENERGY                                4.5485882429971E+02
 ::: PSEUDO TOTAL   ENERGY                        -4.2345373416597E+02
 ::: VIRIAL COEFFICIENT                            1.0357561665617E+00
 TTTTTTTTTTTTTTTTTTTTTTTTTTTTTT MONMO3      TELAPSE       66.44 TCPU       64.25
 NUMERICALLY INTEGRATED DENSITY     59.9999839990
 TTTTTTTTTTTTTTTTTTTTTTTTTTTTTT NUMDFT      TELAPSE       67.34 TCPU       65.15
 CYC   8 ETOT(AU) -4.577646747088E+02 DETOT -2.48E-08 tst  6.15E-10 PX  1.10E-04

 == SCF ENDED - CONVERGENCE ON ENERGY      E(AU) -4.5776467470880E+02 CYCLES   8


 ENERGY EXPRESSION=HARTREE+FOCK EXCH*0.00000+(HSE-3c     EXCH)*1.00000+PBEh-3c    CORR


 TOTAL ENERGY(DFT)(AU)(  8) -4.5776467470880E+02 DE-2.5E-08 tester 6.1E-10
 TTTTTTTTTTTTTTTTTTTTTTTTTTTTTT EDFT        TELAPSE       67.34 TCPU       65.15
 
 INFORMATION **** DFTD3 ENERGY **** CALCULATE DFTD3 ENERGY

           DFT-D V3(BJ)
 DF                                         hse3c     
 parameters
 s6       :    1.0000
 s8       :    0.0000
 a1       :    0.4411
 a2       :    4.5182
 k1 k3    :   16.0000   -4.0000
 Cutoff   :   50.2022
 CN-Cutoff:   21.1671
 
 Edisp /kcal,au:   -11.9134 -0.01898527

 E6    /kcal :   -12.8430
 E8    /kcal :     0.0000
 E6(ABC) "   :   0.929591
 
 INFORMATION **** DFTD3 ENERGY **** NORMAL TERMINATION OF DFTD3 MODULE

 GCP ENERGY CALCULATION
  level           hse3c               basis:hse3c
  Nbf            114
  Atoms           18

  Parameters: 
  sigma     1.0000
  eta       1.4086
  alpha     0.2908
  beta      1.9526

  dmp_scal      4.0000
  dmp_exp       6.0000
 cutoffs: 
   distance [bohr] 60.0
   noise    [a.u.] 2.2E-16
 SR-damping   T
 ** gCP correction **
  Egcp:        0.0710294380 / (a.u.) ||      44.5717 / (kcal/mol)
 INFORMATION **** GCP **** NORMAL TERMINATION OF GCP MODULE

 *******************************************************************************

 DFT-D3-GCP DISPERSION AND COUNTERPOISE CORRECTION

 D3 DISPERSION ENERGY (AU)      -1.8985265356430E-02
 GCP ENERGY (AU)                 7.1029437997797E-02
 TOTAL ENERGY + DISP + GCP (AU) -4.5771263053616E+02

 *******************************************************************************

 EIGENVECTORS IN FORTRAN UNIT  8
 TTTTTTTTTTTTTTTTTTTTTTTTTTTTTT END         TELAPSE       70.63 TCPU       66.12
 EEEEEEEEEE TERMINATION  DATE 25 03 2019 TIME 22:22:45.9
NODE    0 CPU TIME =        66.120
NODE    1 CPU TIME =        68.580
NODE    2 CPU TIME =        69.225
NODE    3 CPU TIME =        68.509
NODE    4 CPU TIME =        68.849
NODE    5 CPU TIME =        66.928
NODE    6 CPU TIME =        69.161
NODE    7 CPU TIME =        68.926
    TOTAL CPU TIME =       546.299
