 PROCESS            4  OF            8  WORKING
 PROCESS            5  OF            8  WORKING
 PROCESS            7  OF            8  WORKING
 PROCESS            3  OF            8  WORKING
 PROCESS            2  OF            8  WORKING
 PROCESS            6  OF            8  WORKING
 PROCESS            0  OF            8  WORKING
 PROCESS            1  OF            8  WORKING

         
 *******************************************************************************
 *                                                                             *
 *                               CRYSTAL17                                     *
 *                      public : 1.0.1 - Feb 1st, 2017                         *
 *                       HTTP://WWW.CRYSTAL.UNITO.IT                           *
 *                                                                             *
 *                              MAIN AUTHORS                                   *
 *                                                                             *
 *  R. DOVESI(1,11), V.R. SAUNDERS(2), C. ROETTI(1,11), R. ORLANDO(1,11),      *
 *  C.M. ZICOVICH-WILSON(1,3), F. PASCALE(4), B. CIVALLERI(1,11),              *
 *  K. DOLL(5), N.M. HARRISON(2,6), I.J. BUSH(7), Ph. D'ARCO(8),               *
 *  M. LLUNELL(9), M. CAUSA'(10), Y. NOEL(8), L. MASCHIO(1,11), A. ERBA(1,11)  *
 *  M. RE'RAT(14), S. CASASSA(1,11)                                            *
 *                                                                             *
 *        CONTRIBUTIONS TO THE CODE HAVE ALSO BEEN GIVEN BY                    *
 *                                                                             *
 *  M. FERRABONE(1,11), M. DE LA PIERRE(1,11), M. FERRERO(1,11),               *
 *  J. BAIMA(1,11), E. ALBANESE(1,11), M.F. PEINTINGER(12), R. BAST(13),       *
 *  B. KIRTMAN(15), V. LACIVITA(1,11), R. DEMICHELIS(1,16)                     *
 *  G. BRANDEBURG(17), S. SALUSTRO(1,11), G. SANSONE(1,11)                     *
 *  M.T. RUGGIERO(18)                                                          *
 *                                                                             *
 * (1) THEORETICAL CHEMISTRY GROUP - UNIVERSITA' DI TORINO - TORINO (ITALY)    *

 * (2) COMPUTATIONAL SCIENCE & ENGINEERING DEPARTMENT - STFC DARESBURY (UK)    *
 * (3) UNIVERSIDAD AUTONOMA DEL ESTADO DE MORELOS - CUERNAVACA (MEXICO)        *
 * (4) UNIVERSITE' DE LORRAINE - NANCY (FRANCE)                                *
 * (5) UNIVERSITAET STUTTGART- STUTTGART (GERMANY)                             *
 * (6) IMPERIAL COLLEGE - LONDON (UK)                                          *
 * (7) OXFORD E-RESEARCH CENTRE - OXFORD (UK)                                  *
 * (8) UPMC - SORBONNE UNIVERSITES - PARIS (FRANCE)                            *
 * (9) UNIVERSIDAD DE BARCELONA - BARCELONA (SPAIN)                            *
 *(10) UNIVERSITA' DI NAPOLI "FEDERICO II" - NAPOLI (ITALY)                    *
 *(11) NIS - NANOSTRUCTURED INTERFACES AND SURFACES - TORINO (ITALY)           *
 *(12) MPI FUER CHEMISCHE ENERGIEKONVERSION - MUELHEIM AN DER RUHR (GERMANY)   *
 *(13) UNIVERSITY OF TROMSO - TROMSO (NORWAY)                                  *
 *(14) UNIVERSITE' DE PAU ET DES PAYS DE L'ADOUR - PAU (FRANCE)                *
 *(15) UNIVERSITY OF CALIFORNIA SANTA BARBARA - SANTA BARBARA (USA)            *
 *(16) CURTIN UNIVERSITY - PERTH (AUSTRALIA)                                   *
 *(17) UNIVERSITY COLLEGE LONDON - LONDON (UK)                                 *
 *(18) CAMBRIDGE UNIVERSITY - CAMBRIDGE (UK)                                   *
 *                                                                             *
 *******************************************************************************
 EEEEEEEEEE STARTING  DATE 25 03 2019 TIME 22:22:01.6
 !drive by JGB                                                                   

 CRYSTAL CALCULATION
 (INPUT ACCORDING TO THE INTERNATIONAL TABLES FOR X-RAY CRYSTALLOGRAPHY)
 CRYSTAL FAMILY                       :  ORTHORHOMBIC
 CRYSTAL CLASS  (GROTH - 1921)        :  ORTHORHOMBIC BIPYRAMIDAL             

 SPACE GROUP (CENTROSYMMETRIC)        :  P N N M         

 LATTICE PARAMETERS  (ANGSTROMS AND DEGREES) - CONVENTIONAL CELL
        A           B           C        ALPHA        BETA       GAMMA
     6.99718     6.99968     4.45731    90.00000    90.00000    90.00000


 NUMBER OF IRREDUCIBLE ATOMS IN THE CONVENTIONAL CELL:    5

 INPUT COORDINATES

 ATOM AT. N.              COORDINATES
   1   8     9.808117356556E-02  2.605166805349E-01  0.000000000000E+00
   2   8     7.529624755617E-01  9.611313800919E-02  0.000000000000E+00
   3   1     1.454428378445E-01  3.280970415591E-01  8.206297808027E-01
   4   1     7.919467385919E-01  9.607534825445E-01  0.000000000000E+00
   5   1     8.746574984960E-01  1.675572049437E-01  0.000000000000E+00

 *******************************************************************************

 << INFORMATION >>: FROM NOW ON, ALL COORDINATES REFER TO THE PRIMITIVE CELL

 *******************************************************************************

 LATTICE PARAMETERS  (ANGSTROMS AND DEGREES) - PRIMITIVE CELL
       A          B          C        ALPHA      BETA     GAMMA        VOLUME
    6.99718    6.99968    4.45731    90.00000  90.00000  90.00000    218.310159

 COORDINATES OF THE EQUIVALENT ATOMS (FRACTIONAL UNITS)

 N. ATOM EQUIV AT. N.          X                  Y                  Z

   1   1   1    8 O     9.80811735656E-02  2.60516680535E-01  0.00000000000E+00
   2   1   2    8 O    -9.80811735656E-02 -2.60516680535E-01  0.00000000000E+00
   3   1   3    8 O    -4.01918826434E-01  2.39483319465E-01 -5.00000000000E-01
   4   1   4    8 O     4.01918826434E-01 -2.39483319465E-01 -5.00000000000E-01

   5   2   1    8 O    -2.47037524438E-01  9.61131380092E-02  0.00000000000E+00
   6   2   2    8 O     2.47037524438E-01 -9.61131380092E-02  0.00000000000E+00
   7   2   3    8 O     2.52962475562E-01  4.03886861991E-01 -5.00000000000E-01
   8   2   4    8 O    -2.52962475562E-01 -4.03886861991E-01 -5.00000000000E-01

   9   3   1    1 H     1.45442837844E-01  3.28097041559E-01 -1.79370219197E-01
  10   3   2    1 H    -1.45442837844E-01 -3.28097041559E-01 -1.79370219197E-01
  11   3   3    1 H    -3.54557162156E-01  1.71902958441E-01 -3.20629780803E-01
  12   3   4    1 H     3.54557162156E-01 -1.71902958441E-01 -3.20629780803E-01
  13   3   5    1 H    -1.45442837844E-01 -3.28097041559E-01  1.79370219197E-01
  14   3   6    1 H     1.45442837844E-01  3.28097041559E-01  1.79370219197E-01
  15   3   7    1 H     3.54557162156E-01 -1.71902958441E-01  3.20629780803E-01
  16   3   8    1 H    -3.54557162156E-01  1.71902958441E-01  3.20629780803E-01

  17   4   1    1 H    -2.08053261408E-01 -3.92465174555E-02  0.00000000000E+00
  18   4   2    1 H     2.08053261408E-01  3.92465174555E-02  0.00000000000E+00
  19   4   3    1 H     2.91946738592E-01 -4.60753482545E-01 -5.00000000000E-01
  20   4   4    1 H    -2.91946738592E-01  4.60753482545E-01 -5.00000000000E-01

  21   5   1    1 H    -1.25342501504E-01  1.67557204944E-01  0.00000000000E+00
  22   5   2    1 H     1.25342501504E-01 -1.67557204944E-01  0.00000000000E+00
  23   5   3    1 H     3.74657498496E-01  3.32442795056E-01 -5.00000000000E-01
  24   5   4    1 H    -3.74657498496E-01 -3.32442795056E-01 -5.00000000000E-01

 NUMBER OF SYMMETRY OPERATORS         :    8
 *******************************************************************************
 * GEOMETRY EDITING - INPUT COORDINATES ARE GIVEN IN ANGSTROM         
 *******************************************************************************

 GEOMETRY NOW FULLY CONSISTENT WITH THE GROUP

 GCALCO - MAX INDICES DIRECT LATTICE VECTOR    13    12    20
 NO.OF VECTORS CREATED 6999 STARS 1055 RMAX   135.22044 BOHR

 GEOMETRY FOR WAVE FUNCTION - DIMENSIONALITY OF THE SYSTEM    3
 (NON PERIODIC DIRECTION: LATTICE PARAMETER FORMALLY SET TO 500)
 *******************************************************************************
 LATTICE PARAMETERS (ANGSTROMS AND DEGREES) - BOHR = 0.5291772083 ANGSTROM
 PRIMITIVE CELL - CENTRING CODE 1/0 VOLUME=   218.310159 - DENSITY  1.096 g/cm^3
         A              B              C           ALPHA      BETA       GAMMA 
     6.99717851     6.99968413     4.45730702    90.000000  90.000000  90.000000
 *******************************************************************************
 ATOMS IN THE ASYMMETRIC UNIT    5 - ATOMS IN THE UNIT CELL:   24
     ATOM                 X/A                 Y/B                 Z/C    
 *******************************************************************************
      1 T   8 O     9.808117356556E-02  2.605166805349E-01  0.000000000000E+00
      2 F   8 O    -9.808117356556E-02 -2.605166805349E-01  0.000000000000E+00
      3 F   8 O    -4.019188264344E-01  2.394833194651E-01 -5.000000000000E-01
      4 F   8 O     4.019188264344E-01 -2.394833194651E-01 -5.000000000000E-01
      5 T   8 O    -2.470375244383E-01  9.611313800919E-02  0.000000000000E+00
      6 F   8 O     2.470375244383E-01 -9.611313800919E-02  0.000000000000E+00
      7 F   8 O     2.529624755617E-01  4.038868619908E-01 -5.000000000000E-01
      8 F   8 O    -2.529624755617E-01 -4.038868619908E-01 -5.000000000000E-01
      9 T   1 H     1.454428378445E-01  3.280970415591E-01 -1.793702191973E-01
     10 F   1 H    -1.454428378445E-01 -3.280970415591E-01 -1.793702191973E-01
     11 F   1 H    -3.545571621555E-01  1.719029584409E-01 -3.206297808027E-01
     12 F   1 H     3.545571621555E-01 -1.719029584409E-01 -3.206297808027E-01
     13 F   1 H    -1.454428378445E-01 -3.280970415591E-01  1.793702191973E-01
     14 F   1 H     1.454428378445E-01  3.280970415591E-01  1.793702191973E-01
     15 F   1 H     3.545571621555E-01 -1.719029584409E-01  3.206297808027E-01
     16 F   1 H    -3.545571621555E-01  1.719029584409E-01  3.206297808027E-01
     17 T   1 H    -2.080532614081E-01 -3.924651745546E-02  0.000000000000E+00
     18 F   1 H     2.080532614081E-01  3.924651745546E-02  0.000000000000E+00
     19 F   1 H     2.919467385919E-01 -4.607534825445E-01 -5.000000000000E-01
     20 F   1 H    -2.919467385919E-01  4.607534825445E-01 -5.000000000000E-01
     21 T   1 H    -1.253425015040E-01  1.675572049437E-01  0.000000000000E+00
     22 F   1 H     1.253425015040E-01 -1.675572049437E-01  0.000000000000E+00
     23 F   1 H     3.746574984960E-01  3.324427950563E-01 -5.000000000000E-01
     24 F   1 H    -3.746574984960E-01 -3.324427950563E-01 -5.000000000000E-01

 T = ATOM BELONGING TO THE ASYMMETRIC UNIT

 ****    8 SYMMOPS - TRANSLATORS IN FRACTIONAL UNITS
 **** MATRICES AND TRANSLATORS IN THE CRYSTALLOGRAPHIC REFERENCE FRAME
   V INV                    ROTATION MATRICES                   TRANSLATORS
   1   1  1.00  0.00  0.00  0.00  1.00  0.00  0.00  0.00  1.00  0.00  0.00  0.00
   2   2 -1.00  0.00  0.00  0.00 -1.00  0.00  0.00  0.00  1.00  0.00  0.00  0.00
   3   3  1.00  0.00  0.00  0.00 -1.00  0.00  0.00  0.00 -1.00  0.50  0.50  0.50
   4   4 -1.00  0.00  0.00  0.00  1.00  0.00  0.00  0.00 -1.00  0.50  0.50  0.50
   5   5 -1.00  0.00  0.00  0.00 -1.00  0.00  0.00  0.00 -1.00  0.00  0.00  0.00
   6   6  1.00  0.00  0.00  0.00  1.00  0.00  0.00  0.00 -1.00  0.00  0.00  0.00
   7   7 -1.00  0.00  0.00  0.00  1.00  0.00  0.00  0.00  1.00  0.50  0.50  0.50
   8   8  1.00  0.00  0.00  0.00 -1.00  0.00  0.00  0.00  1.00  0.50  0.50  0.50

 DIRECT LATTICE VECTORS CARTESIAN COMPONENTS (ANGSTROM)
          X                    Y                    Z
   0.699717851000E+01   0.000000000000E+00   0.000000000000E+00
   0.000000000000E+00   0.699968413000E+01   0.000000000000E+00
   0.000000000000E+00   0.000000000000E+00   0.445730702000E+01


 CARTESIAN COORDINATES - PRIMITIVE CELL
 *******************************************************************************
 *      ATOM          X(ANGSTROM)         Y(ANGSTROM)         Z(ANGSTROM)
 *******************************************************************************
    1     8 O     6.862914799085E-01  1.823534474340E+00  0.000000000000E+00
    2     8 O    -6.862914799085E-01 -1.823534474340E+00  0.000000000000E+00
    3     8 O    -2.812297775091E+00  1.676307590660E+00  2.228653510000E+00
    4     8 O     2.812297775091E+00 -1.676307590660E+00  2.228653510000E+00
    5     8 O    -1.728565657163E+00  6.727616068074E-01  0.000000000000E+00
    6     8 O     1.728565657163E+00 -6.727616068074E-01  0.000000000000E+00
    7     8 O     1.770023597837E+00  2.827080458193E+00  2.228653510000E+00
    8     8 O    -1.770023597837E+00 -2.827080458193E+00  2.228653510000E+00
    9     1 H     1.017689499399E+00  2.296575654901E+00 -7.995081372071E-01
   10     1 H    -1.017689499399E+00 -2.296575654901E+00 -7.995081372071E-01
   11     1 H    -2.480899755601E+00  1.203266410099E+00 -1.429145372793E+00
   12     1 H     2.480899755601E+00 -1.203266410099E+00 -1.429145372793E+00
   13     1 H    -1.017689499399E+00 -2.296575654901E+00  7.995081372071E-01
   14     1 H     1.017689499399E+00  2.296575654901E+00  7.995081372071E-01
   15     1 H     2.480899755601E+00 -1.203266410099E+00  1.429145372793E+00
   16     1 H    -2.480899755601E+00  1.203266410099E+00  1.429145372793E+00
   17     1 H    -1.455785809660E+00 -2.747132253908E-01  0.000000000000E+00
   18     1 H     1.455785809660E+00  2.747132253908E-01  0.000000000000E+00
   19     1 H     2.042803445340E+00 -3.225128839609E+00  2.228653510000E+00
   20     1 H    -2.042803445340E+00  3.225128839609E+00  2.228653510000E+00
   21     1 H    -8.770438579134E-01  1.172847508312E+00  0.000000000000E+00
   22     1 H     8.770438579134E-01 -1.172847508312E+00  0.000000000000E+00
   23     1 H     2.621545397087E+00  2.326994556688E+00  2.228653510000E+00
   24     1 H    -2.621545397087E+00 -2.326994556688E+00  2.228653510000E+00

 *******************************************************************************
 STARTING BASIS SET HANDLING 
 *******************************************************************************

 Loading internal basis set: DEF2-MSVP           

 Please cite in your publication:
 Fully Optimized Contracted Gaussian Basis Sets for Atoms Li to Kr. A. Schäfer, 
 H. Horn and R. Ahlrichs; J. Chem. Phys. 97, 2571 (1992).                       
                                                                                
                    
 S. Grimme, J. G. Brandenburg, C. Bannwarth, and A. Hansen, J. Chem. Phys., 143,
  054107 (2015).                                                                
                                                                                
                    

 *******************************************************************************
 LOCAL ATOMIC FUNCTIONS BASIS SET
 *******************************************************************************
   ATOM   X(AU)   Y(AU)   Z(AU)  N. TYPE  EXPONENT  S COEF   P COEF   D/F/G COEF
 *******************************************************************************
   1 O    1.297   3.446   0.000
                                  1 S  
                                         6.773E+03 1.727E-03 0.000E+00 0.000E+00
                                         1.017E+03 1.325E-02 0.000E+00 0.000E+00
                                         2.313E+02 6.603E-02 0.000E+00 0.000E+00
                                         6.501E+01 2.353E-01 0.000E+00 0.000E+00
                                         2.050E+01 5.498E-01 0.000E+00 0.000E+00
                                  2 S  
                                         6.716E+00 1.000E+00 0.000E+00 0.000E+00
                                  3 S  
                                         1.147E+00 1.000E+00 0.000E+00 0.000E+00
                                  4 S  
                                         3.342E-01 1.000E+00 0.000E+00 0.000E+00
                           5-     7 P  
                                         1.769E+01 0.000E+00 4.359E-02 0.000E+00
                                         3.854E+00 0.000E+00 2.318E-01 0.000E+00
                                         1.047E+00 0.000E+00 5.146E-01 0.000E+00
                           8-    10 P  
                                         2.759E-01 0.000E+00 1.000E+00 0.000E+00
                          11-    15 D  
                                         8.000E-01 0.000E+00 0.000E+00 1.000E+00
   2 O   -1.297  -3.446   0.000
   3 O   -5.314   3.168   4.212
   4 O    5.314  -3.168   4.212
   5 O   -3.267   1.271   0.000
   6 O    3.267  -1.271   0.000
   7 O    3.345   5.342   4.212
   8 O   -3.345  -5.342   4.212
   9 H    1.923   4.340  -1.511
                                121 S  
                                         1.874E+01 1.968E-02 0.000E+00 0.000E+00
                                         2.826E+00 1.380E-01 0.000E+00 0.000E+00
                                         6.401E-01 4.783E-01 0.000E+00 0.000E+00
                                122 S  
                                         1.756E-01 1.000E+00 0.000E+00 0.000E+00
  10 H   -1.923  -4.340  -1.511
  11 H   -4.688   2.274  -2.701
  12 H    4.688  -2.274  -2.701
  13 H   -1.923  -4.340   1.511
  14 H    1.923   4.340   1.511
  15 H    4.688  -2.274   2.701
  16 H   -4.688   2.274   2.701
  17 H   -2.751  -0.519   0.000
  18 H    2.751   0.519   0.000
  19 H    3.860  -6.095   4.212
  20 H   -3.860   6.095   4.212
  21 H   -1.657   2.216   0.000
  22 H    1.657  -2.216   0.000
  23 H    4.954   4.397   4.212
  24 H   -4.954  -4.397   4.212

 *******************************************************************************
 FINISHED BASIS SET HANDLING 
 *******************************************************************************

 INFORMATION **** SET_MPP **** PCRYSTAL CALCULATION
 INFORMATION **** READM2 **** NEW DEFAULT: FOCK/KS MATRIX MIXING SET TO 30 %
 INFORMATION **** READM2 **** NEW DEFAULT: FULL DIRECT SCF MODE
 INFORMATION **** READM2 **** NEW DEFAULT: COULOMB BIPOLAR BUFFER SET TO 32 Mb
 INFORMATION **** READM2 **** NEW DEFAULT: EXCHANGE BIPOLAR BUFFER SET TO 32 Mb

 *******************************************************************************
 NEW DEFAULT: DFT INTEGRATION GRID INCREASED TO XLGRID
 NEW DEFAULT: DIIS ACCELERATOR ACTIVE
 USE KEYWORD NODIIS TO TURN IT OFF
 *******************************************************************************

 INFORMATION **** RDDFTP **** HSE-3c calculation
 INFORMATION **** RDDFTP **** HSE screened hybrid functional combined with D3 and gCP

PLEASE CITE:
(1) HSE-3c Reference
 J. G. Brandenburg, E. Caldeweyer, and S. Grimme, 
 Phys. Chem. Chem. Phys. 18, 15519 (2016)
(2) DFT-D3 Reference
 S. Grimme, J. Antony, S. Ehrlich,
 and H. Krieg, J. Chem. Phys. 132, 154104 (2010)
(3) gCP Reference
 H. Kruse and S. Grimme J. Chem. Phys, 136, 154101 (2012)
 J. G. Brandenburg, M. Alessio, B. Civalleri, M. F. Peintinger
 T. Bredow, and S. Grimme, J. Phys. Chem. A, 117, 9282 (2013) 

 WARNING **** RDDFTP **** HSE3c-HJS ACTIVE
 RANGE SEPARATION - OMEGA:   0.110000000000000     
 WARNING **** RDDFTP **** HSE-3c has to be combined with def2-mSVP basis set
 WARNING **** RDDFTP **** Note: Harmonic frequencies are scaled by 0.95
 WARNING **** RDDFTP **** as recommended in original publication
 INFORMATION **** BIPOSIZE **** COULOMB BIPOLAR BUFFER SET TO    60000000
 INFORMATION **** EXCHSIZE **** EXCHANGE BIPOLAR BUFFER SIZE SET TO    40000000
 *******************************************************************************
 N. OF ATOMS PER CELL        24  COULOMB OVERLAP TOL         (T1) 10**   -6
 NUMBER OF SHELLS            88  COULOMB PENETRATION TOL     (T2) 10**   -6
 NUMBER OF AO               152  EXCHANGE OVERLAP TOL        (T3) 10**   -6
 N. OF ELECTRONS PER CELL    80  EXCHANGE PSEUDO OVP (F(G))  (T4) 10**   -6
 CORE ELECTRONS PER CELL     16  EXCHANGE PSEUDO OVP (P(G))  (T5) 10**  -12
 N. OF SYMMETRY OPERATORS     8  POLE ORDER IN MONO ZONE                  4
 *******************************************************************************
 TYPE OF CALCULATION :  RESTRICTED CLOSED SHELL
 KOHN-SHAM HAMILTONIAN

 (EXCHANGE)[CORRELATION] FUNCTIONAL:(HSE-3c)[PBEh-3c]

 RANGE-SEPARATED HYBRID FUNCTIONAL 
 OMEGA (SHORT-RANGE)[LONG-RANGE]:(    0.1100)[    0.0000]

 HYBRID EXCHANGE - PERCENTAGE OF FOCK EXCHANGE    42.0000

 CAPPA:IS1  2;IS2  2;IS3  2; K PTS MONK NET   8; SYMMOPS:K SPACE   8;G SPACE   8

 *******************************************************************************
 MAX NUMBER OF SCF CYCLES      50  CONVERGENCE ON DELTAP        10**-16
 WEIGHT OF F(I) IN F(I+1)      30% CONVERGENCE ON ENERGY        10**- 6
 S(K) EIGENV. THRESHOLD  10*10.**-4
 SHRINK. FACT.(MONKH.)    2  2  2  NUMBER OF K POINTS IN THE IBZ      8
 SHRINKING FACTOR(GILAT NET)    2  NUMBER OF K POINTS(GILAT NET)      8
 *******************************************************************************
 *** K POINTS COORDINATES (OBLIQUE COORDINATES IN UNITS OF IS =  2)
   1-R(  0  0  0)   2-R(  1  0  0)   3-R(  0  1  0)   4-R(  1  1  0)
   5-R(  0  0  1)   6-R(  1  0  1)   7-R(  0  1  1)   8-R(  1  1  1)

 DIRECT LATTICE VECTORS COMPON. (A.U.)     RECIP. LATTICE VECTORS COMPON. (A.U.) 
        X            Y            Z              X            Y            Z
   13.2227511    0.0000000    0.0000000      0.4751799    0.0000000    0.0000000
    0.0000000   13.2274860    0.0000000      0.0000000    0.4750098    0.0000000
    0.0000000    0.0000000    8.4230896      0.0000000    0.0000000    0.7459478

 DISK SPACE FOR EIGENVECTORS (FTN 10)      184832 REALS

 SYMMETRY ADAPTION OF THE BLOCH FUNCTIONS ENABLED
 TTTTTTTTTTTTTTTTTTTTTTTTTTTTTT gordsh1     TELAPSE        0.18 TCPU        0.05

 MATRIX SIZE: P(G)   84152, F(G)   15314, P(G) IRR    6709, F(G) IRR    2603
 MAX G-VECTOR INDEX FOR 1- AND 2-ELECTRON INTEGRALS  91

 TTTTTTTTTTTTTTTTTTTTTTTTTTTTTT INPUT       TELAPSE        0.19 TCPU        0.06

 NEIGHBORS OF THE NON-EQUIVALENT ATOMS

 N = NUMBER OF NEIGHBORS AT DISTANCE R
    ATOM  N     R/ANG      R/AU   NEIGHBORS (ATOM LABELS AND CELL INDICES)
   1 O    2     0.9863     1.8639    9 H    0 0 0   14 H    0 0 0
   1 O    1     1.6933     3.2000   21 H    0 0 0
   1 O    1     1.7294     3.2682   18 H    0 0 0
   1 O    2     2.6737     5.0525    7 O    0 0 0    7 O    0 0-1
   1 O    1     2.6750     5.0551    5 O    0 0 0
   1 O    1     2.7051     5.1120    6 O    0 0 0

   5 O    1     0.9860     1.8632   17 H    0 0 0
   5 O    1     0.9875     1.8661   21 H    0 0 0
   5 O    2     1.7000     3.2125   11 H    0 0 0   16 H    0 0 0
   5 O    2     2.6737     5.0525    3 O    0 0 0    3 O    0 0-1
   5 O    1     2.6750     5.0551    1 O    0 0 0
   5 O    1     2.7051     5.1120    2 O    0 0 0

   9 H    1     0.9863     1.8639    1 O    0 0 0
   9 H    1     1.5990     3.0217   14 H    0 0 0
   9 H    1     1.7000     3.2125    7 O    0 0-1
   9 H    1     2.1484     4.0599   23 H    0 0-1
   9 H    1     2.2179     4.1912   18 H    0 0 0
   9 H    1     2.2973     4.3413   19 H    0 1-1

  17 H    1     0.9860     1.8632    5 O    0 0 0
  17 H    1     1.5590     2.9460   21 H    0 0 0
  17 H    1     1.7294     3.2682    2 O    0 0 0
  17 H    2     2.2179     4.1912   10 H    0 0 0   13 H    0 0 0
  17 H    2     2.2973     4.3413   11 H    0 0 0   16 H    0 0 0
  17 H    1     2.4997     4.7238   22 H    0 0 0

  21 H    1     0.9875     1.8661    5 O    0 0 0
  21 H    1     1.5590     2.9460   17 H    0 0 0
  21 H    1     1.6933     3.2000    1 O    0 0 0
  21 H    2     2.1484     4.0599   11 H    0 0 0   16 H    0 0 0
  21 H    2     2.3435     4.4286    9 H    0 0 0   14 H    0 0 0
  21 H    1     2.4997     4.7238   18 H    0 0 0


 SYMMETRY ALLOWED INTERNAL DEGREE(S) OF FREEDOM:  11
 TTTTTTTTTTTTTTTTTTTTTTTTTTTTTT SYMM        TELAPSE        1.89 TCPU        1.61
 TTTTTTTTTTTTTTTTTTTTTTTTTTTTTT INT_SCREEN  TELAPSE        1.89 TCPU        1.61

 DFT PARAMETERS

     ATOM       ELECTRONS   NET CHARGE   R(ANGSTROM)
   1   8  O       8.0000      0.0000     0.74000000
   9   1  H       1.0000      0.0000     1.11000000

 SIZE OF GRID=      70788
 TTTTTTTTTTTTTTTTTTTTTTTTTTTTTT MAKE_GRID2  TELAPSE        4.04 TCPU        3.71
 BECKE WEIGHT FUNCTION
 RADSAFE =     2.00
 TOLERANCES - DENSITY:10**- 6; POTENTIAL:10**- 9; GRID WGT:10**-14

 RADIAL INTEGRATION  - INTERVALS (POINTS,UPPER LIMIT):            1( 75,  4.0*R)

 ANGULAR INTEGRATION - INTERVALS (ACCURACY LEVEL [N. POINTS] UPPER LIMIT):
  1(  4[  86]   0.2)  2(  8[ 194]   0.5)  3( 12[ 350]   0.9)  4( 16[ 974]   3.5)
  5( 12[ 350]9999.0)
 TTTTTTTTTTTTTTTTTTTTTTTTTTTTTT INT_CALC    TELAPSE        4.06 TCPU        3.73
 EEEEEEEEEE INT_CALC TERMINATION  DATE 25 03 2019 TIME 22:22:05.6

 *******************************************************************************
 !drive by JGB                                                                   
 CRYSTAL - SCF - TYPE OF CALCULATION :  RESTRICTED CLOSED SHELL
 *******************************************************************************

 CAPPA:IS1  2;IS2  2;IS3  2; K PTS MONK NET   8; SYMMOPS:K SPACE   8;G SPACE   8

 TTTTTTTTTTTTTTTTTTTTTTTTTTTTTT SDIK        TELAPSE        4.23 TCPU        3.75

 AAAAAAAAAAAAAAAAAAAAAAAAAAAAAAAAAAAAAAAAAAAAAAAAAAAAAAAAAAAAAAAAAAAAAAAAAAAAAAA
         ATOMIC WAVEFUNCTION(S)


 NUCLEAR CHARGE  8.0  SYMMETRY SPECIES            S    P
 N. ELECTRONS    8.0  NUMBER OF PRIMITIVE GTOS    8    4
                      NUMBER OF CONTRACTED GTOS   4    2
                      NUMBER OF CLOSED SHELLS     2    0
                      OPEN SHELL OCCUPATION       0    4

  ZNUC SCFIT  TOTAL HF ENERGY   KINETIC ENERGY   VIRIAL THEOREM ACCURACY
   8.0  12   -7.477373220E+01  7.477365593E+01 -2.000001020E+00  3.8E-06

 NUCLEAR CHARGE  1.0  SYMMETRY SPECIES            S
 N. ELECTRONS    1.0  NUMBER OF PRIMITIVE GTOS    4
                      NUMBER OF CONTRACTED GTOS   2
                      NUMBER OF CLOSED SHELLS     0
                      OPEN SHELL OCCUPATION       1

  ZNUC SCFIT  TOTAL HF ENERGY   KINETIC ENERGY   VIRIAL THEOREM ACCURACY
   1.0   1   -4.977266687E-01  5.190767460E-01 -1.958869132E+00  1.8E-16

 AAAAAAAAAAAAAAAAAAAAAAAAAAAAAAAAAAAAAAAAAAAAAAAAAAAAAAAAAAAAAAAAAAAAAAAAAAAAAAA

 CHARGE NORMALIZATION FACTOR   1.00000000
 TOTAL ATOMIC CHARGES:
   8.0000000   8.0000000   8.0000000   8.0000000   8.0000000   8.0000000
   8.0000000   8.0000000   1.0000000   1.0000000   1.0000000   1.0000000
   1.0000000   1.0000000   1.0000000   1.0000000   1.0000000   1.0000000
   1.0000000   1.0000000   1.0000000   1.0000000   1.0000000   1.0000000
 TTTTTTTTTTTTTTTTTTTTTTTTTTTTTT MOQGAD      TELAPSE        4.30 TCPU        3.82
 TTTTTTTTTTTTTTTTTTTTTTTTTTTTTT SHELLXN     TELAPSE        5.87 TCPU        5.35
 TTTTTTTTTTTTTTTTTTTTTTTTTTTTTT MONMO3      TELAPSE        6.33 TCPU        5.81
 NUMERICALLY INTEGRATED DENSITY     80.0000112046
 TTTTTTTTTTTTTTTTTTTTTTTTTTTTTT NUMDFT      TELAPSE        6.47 TCPU        5.95
 CYC   0 ETOT(AU) -6.106584259417E+02 DETOT -6.11E+02 tst  0.00E+00 PX  1.00E+00
 TTTTTTTTTTTTTTTTTTTTTTTTTTTTTT DIIS        TELAPSE        6.48 TCPU        5.96
 TTTTTTTTTTTTTTTTTTTTTTTTTTTTTT FDIK        TELAPSE        7.18 TCPU        6.50
 INSULATING STATE
 TOP OF VALENCE BANDS -    BAND     40; K    7; EIG -4.1550697E-01 AU
 TOP OF VALENCE BANDS -    BAND     40; K    1; EIG -4.2016142E-01 AU
 BOTTOM OF VIRTUAL BANDS - BAND     41; K    1; EIG -6.4388039E-02 AU
 INDIRECT ENERGY BAND GAP:   9.5544 eV
 TTTTTTTTTTTTTTTTTTTTTTTTTTTTTT PDIG        TELAPSE        7.20 TCPU        6.51
 CHARGE NORMALIZATION FACTOR   1.00000000
 TOTAL ATOMIC CHARGES:
   9.0795379   9.0795379   9.0795379   9.0795379   9.0699959   9.0699959
   9.0699959   9.0699959   0.4601086   0.4601086   0.4601086   0.4601086
   0.4601086   0.4601086   0.4601086   0.4601086   0.4672405   0.4672405
   0.4672405   0.4672405   0.4630087   0.4630087   0.4630087   0.4630087
 TTTTTTTTTTTTTTTTTTTTTTTTTTTTTT MOQGAD      TELAPSE        7.20 TCPU        6.51
 TTTTTTTTTTTTTTTTTTTTTTTTTTTTTT SHELLXN     TELAPSE        8.80 TCPU        8.09
 TTTTTTTTTTTTTTTTTTTTTTTTTTTTTT MONMO3      TELAPSE        9.25 TCPU        8.53
 NUMERICALLY INTEGRATED DENSITY     79.9999989063
 TTTTTTTTTTTTTTTTTTTTTTTTTTTTTT NUMDFT      TELAPSE        9.53 TCPU        8.82
 CYC   1 ETOT(AU) -6.101841198544E+02 DETOT  4.74E-01 tst  0.00E+00 PX  1.00E+00
 TTTTTTTTTTTTTTTTTTTTTTTTTTTTTT DIIS        TELAPSE       10.44 TCPU        9.70
 DIIS TEST: 0.78091E+00 AT SCF   CYCLE   1 - MIX   30 %
 TTTTTTTTTTTTTTTTTTTTTTTTTTTTTT FDIK        TELAPSE       10.45 TCPU        9.71
 INSULATING STATE
 TOP OF VALENCE BANDS -    BAND     40; K    7; EIG -3.1709392E-01 AU
 TOP OF VALENCE BANDS -    BAND     40; K    1; EIG -3.2356890E-01 AU
 BOTTOM OF VIRTUAL BANDS - BAND     41; K    1; EIG -3.1795841E-03 AU
 INDIRECT ENERGY BAND GAP:   8.5420 eV
 TTTTTTTTTTTTTTTTTTTTTTTTTTTTTT PDIG        TELAPSE       10.46 TCPU        9.72
 CHARGE NORMALIZATION FACTOR   1.00000000
 TOTAL ATOMIC CHARGES:
   8.8727298   8.8727298   8.8727298   8.8727298   8.8674739   8.8674739
   8.8674739   8.8674739   0.5606088   0.5606088   0.5606088   0.5606088
   0.5606088   0.5606088   0.5606088   0.5606088   0.5742996   0.5742996
   0.5742996   0.5742996   0.5642792   0.5642792   0.5642792   0.5642792
 TTTTTTTTTTTTTTTTTTTTTTTTTTTTTT MOQGAD      TELAPSE       10.47 TCPU        9.72
 TTTTTTTTTTTTTTTTTTTTTTTTTTTTTT SHELLXN     TELAPSE       12.04 TCPU       11.29
 TTTTTTTTTTTTTTTTTTTTTTTTTTTTTT MONMO3      TELAPSE       12.50 TCPU       11.75
 NUMERICALLY INTEGRATED DENSITY     80.0000009342
 TTTTTTTTTTTTTTTTTTTTTTTTTTTTTT NUMDFT      TELAPSE       12.78 TCPU       12.03
 CYC   2 ETOT(AU) -6.103469515478E+02 DETOT -1.63E-01 tst  3.04E-03 PX  1.19E-01
 TTTTTTTTTTTTTTTTTTTTTTTTTTTTTT DIIS        TELAPSE       14.13 TCPU       13.31
 DIIS TEST: 0.16195E+00 AT SCF   CYCLE   2 - DIIS ACTIVE - HISTORY:     2 CYCLES
 TTTTTTTTTTTTTTTTTTTTTTTTTTTTTT FDIK        TELAPSE       14.17 TCPU       13.32
 INSULATING STATE
 TOP OF VALENCE BANDS -    BAND     40; K    7; EIG -3.5998502E-01 AU
 TOP OF VALENCE BANDS -    BAND     40; K    1; EIG -3.6574086E-01 AU
 BOTTOM OF VIRTUAL BANDS - BAND     41; K    1; EIG -4.3076666E-03 AU
 INDIRECT ENERGY BAND GAP:   9.6785 eV
 TTTTTTTTTTTTTTTTTTTTTTTTTTTTTT PDIG        TELAPSE       14.18 TCPU       13.33
 CHARGE NORMALIZATION FACTOR   1.00000000
 TOTAL ATOMIC CHARGES:
   8.9451213   8.9451213   8.9451213   8.9451213   8.9362895   8.9362895
   8.9362895   8.9362895   0.5251053   0.5251053   0.5251053   0.5251053
   0.5251053   0.5251053   0.5251053   0.5251053   0.5384272   0.5384272
   0.5384272   0.5384272   0.5299514   0.5299514   0.5299514   0.5299514
 TTTTTTTTTTTTTTTTTTTTTTTTTTTTTT MOQGAD      TELAPSE       14.18 TCPU       13.33
 TTTTTTTTTTTTTTTTTTTTTTTTTTTTTT SHELLXN     TELAPSE       15.75 TCPU       14.91
 TTTTTTTTTTTTTTTTTTTTTTTTTTTTTT MONMO3      TELAPSE       16.20 TCPU       15.35
 NUMERICALLY INTEGRATED DENSITY     80.0000000067
 TTTTTTTTTTTTTTTTTTTTTTTTTTTTTT NUMDFT      TELAPSE       16.49 TCPU       15.64
 CYC   3 ETOT(AU) -6.103893576523E+02 DETOT -4.24E-02 tst  2.79E-04 PX  4.15E-02
 TTTTTTTTTTTTTTTTTTTTTTTTTTTTTT DIIS        TELAPSE       16.50 TCPU       15.65
 DIIS TEST: 0.38544E-03 AT SCF   CYCLE   3 - DIIS ACTIVE - HISTORY:     3 CYCLES
 TTTTTTTTTTTTTTTTTTTTTTTTTTTTTT FDIK        TELAPSE       16.87 TCPU       15.65
 INSULATING STATE
 TOP OF VALENCE BANDS -    BAND     40; K    7; EIG -3.5796019E-01 AU
 TOP OF VALENCE BANDS -    BAND     40; K    1; EIG -3.6404309E-01 AU
 BOTTOM OF VIRTUAL BANDS - BAND     41; K    1; EIG -2.2552040E-03 AU
 INDIRECT ENERGY BAND GAP:   9.6792 eV
 TTTTTTTTTTTTTTTTTTTTTTTTTTTTTT PDIG        TELAPSE       16.87 TCPU       15.65
 CHARGE NORMALIZATION FACTOR   1.00000000
 TOTAL ATOMIC CHARGES:
   8.9418923   8.9418923   8.9418923   8.9418923   8.9357017   8.9357017
   8.9357017   8.9357017   0.5263695   0.5263695   0.5263695   0.5263695
   0.5263695   0.5263695   0.5263695   0.5263695   0.5389824   0.5389824
   0.5389824   0.5389824   0.5306847   0.5306847   0.5306847   0.5306847
 TTTTTTTTTTTTTTTTTTTTTTTTTTTTTT MOQGAD      TELAPSE       16.87 TCPU       15.65
 TTTTTTTTTTTTTTTTTTTTTTTTTTTTTT SHELLXN     TELAPSE       18.45 TCPU       17.23
 TTTTTTTTTTTTTTTTTTTTTTTTTTTTTT MONMO3      TELAPSE       18.97 TCPU       17.74
 NUMERICALLY INTEGRATED DENSITY     80.0000000299
 TTTTTTTTTTTTTTTTTTTTTTTTTTTTTT NUMDFT      TELAPSE       19.24 TCPU       18.01
 CYC   4 ETOT(AU) -6.103894403544E+02 DETOT -8.27E-05 tst  1.00E-06 PX  1.83E-03
 TTTTTTTTTTTTTTTTTTTTTTTTTTTTTT DIIS        TELAPSE       19.25 TCPU       18.02
 DIIS TEST: 0.23041E-04 AT SCF   CYCLE   4 - DIIS ACTIVE - HISTORY:     4 CYCLES
 TTTTTTTTTTTTTTTTTTTTTTTTTTTTTT FDIK        TELAPSE       19.29 TCPU       18.04
 INSULATING STATE
 TOP OF VALENCE BANDS -    BAND     40; K    7; EIG -3.5798377E-01 AU
 TOP OF VALENCE BANDS -    BAND     40; K    1; EIG -3.6358027E-01 AU
 BOTTOM OF VIRTUAL BANDS - BAND     41; K    1; EIG -2.0579328E-03 AU
 INDIRECT ENERGY BAND GAP:   9.6852 eV
 TTTTTTTTTTTTTTTTTTTTTTTTTTTTTT PDIG        TELAPSE       19.30 TCPU       18.05
 CHARGE NORMALIZATION FACTOR   1.00000000
 TOTAL ATOMIC CHARGES:
   8.9434322   8.9434322   8.9434322   8.9434322   8.9342029   8.9342029
   8.9342029   8.9342029   0.5260599   0.5260599   0.5260599   0.5260599
   0.5260599   0.5260599   0.5260599   0.5260599   0.5392759   0.5392759
   0.5392759   0.5392759   0.5309693   0.5309693   0.5309693   0.5309693
 TTTTTTTTTTTTTTTTTTTTTTTTTTTTTT MOQGAD      TELAPSE       19.30 TCPU       18.05
 TTTTTTTTTTTTTTTTTTTTTTTTTTTTTT SHELLXN     TELAPSE       20.89 TCPU       19.62
 TTTTTTTTTTTTTTTTTTTTTTTTTTTTTT MONMO3      TELAPSE       21.35 TCPU       20.08
 NUMERICALLY INTEGRATED DENSITY     80.0000000319
 TTTTTTTTTTTTTTTTTTTTTTTTTTTTTT NUMDFT      TELAPSE       21.63 TCPU       20.36
 CYC   5 ETOT(AU) -6.103894423979E+02 DETOT -2.04E-06 tst  2.12E-07 PX  7.66E-04
 TTTTTTTTTTTTTTTTTTTTTTTTTTTTTT DIIS        TELAPSE       21.64 TCPU       20.38
 DIIS TEST: 0.13953E-04 AT SCF   CYCLE   5 - DIIS ACTIVE - HISTORY:     5 CYCLES
 TTTTTTTTTTTTTTTTTTTTTTTTTTTTTT FDIK        TELAPSE       21.65 TCPU       20.38
 INSULATING STATE
 TOP OF VALENCE BANDS -    BAND     40; K    7; EIG -3.5791966E-01 AU
 TOP OF VALENCE BANDS -    BAND     40; K    1; EIG -3.6379680E-01 AU
 BOTTOM OF VIRTUAL BANDS - BAND     41; K    1; EIG -2.0393549E-03 AU
 INDIRECT ENERGY BAND GAP:   9.6840 eV
 TTTTTTTTTTTTTTTTTTTTTTTTTTTTTT PDIG        TELAPSE       21.66 TCPU       20.39
 CHARGE NORMALIZATION FACTOR   1.00000000
 TOTAL ATOMIC CHARGES:
   8.9425997   8.9425997   8.9425997   8.9425997   8.9350083   8.9350083
   8.9350083   8.9350083   0.5261946   0.5261946   0.5261946   0.5261946
   0.5261946   0.5261946   0.5261946   0.5261946   0.5391655   0.5391655
   0.5391655   0.5391655   0.5308372   0.5308372   0.5308372   0.5308372
 TTTTTTTTTTTTTTTTTTTTTTTTTTTTTT MOQGAD      TELAPSE       21.66 TCPU       20.39
 TTTTTTTTTTTTTTTTTTTTTTTTTTTTTT SHELLXN     TELAPSE       23.29 TCPU       21.96
 TTTTTTTTTTTTTTTTTTTTTTTTTTTTTT MONMO3      TELAPSE       23.77 TCPU       22.45
 NUMERICALLY INTEGRATED DENSITY     80.0000000287
 TTTTTTTTTTTTTTTTTTTTTTTTTTTTTT NUMDFT      TELAPSE       24.05 TCPU       22.73
 CYC   6 ETOT(AU) -6.103894461340E+02 DETOT -3.74E-06 tst  4.10E-08 PX  3.81E-04
 TTTTTTTTTTTTTTTTTTTTTTTTTTTTTT DIIS        TELAPSE       24.07 TCPU       22.74
 DIIS TEST: 0.26242E-06 AT SCF   CYCLE   6 - DIIS ACTIVE - HISTORY:     6 CYCLES
 TTTTTTTTTTTTTTTTTTTTTTTTTTTTTT FDIK        TELAPSE       24.08 TCPU       22.74
 INSULATING STATE
 TOP OF VALENCE BANDS -    BAND     40; K    7; EIG -3.5790957E-01 AU
 TOP OF VALENCE BANDS -    BAND     40; K    1; EIG -3.6376819E-01 AU
 BOTTOM OF VIRTUAL BANDS - BAND     41; K    1; EIG -2.0267068E-03 AU
 INDIRECT ENERGY BAND GAP:   9.6841 eV
 TTTTTTTTTTTTTTTTTTTTTTTTTTTTTT PDIG        TELAPSE       24.09 TCPU       22.75
 CHARGE NORMALIZATION FACTOR   1.00000000
 TOTAL ATOMIC CHARGES:
   8.9426149   8.9426149   8.9426149   8.9426149   8.9349181   8.9349181
   8.9349181   8.9349181   0.5262084   0.5262084   0.5262084   0.5262084
   0.5262084   0.5262084   0.5262084   0.5262084   0.5391865   0.5391865
   0.5391865   0.5391865   0.5308639   0.5308639   0.5308639   0.5308639
 TTTTTTTTTTTTTTTTTTTTTTTTTTTTTT MOQGAD      TELAPSE       24.10 TCPU       22.75
 TTTTTTTTTTTTTTTTTTTTTTTTTTTTTT SHELLXN     TELAPSE       25.77 TCPU       24.33
 TTTTTTTTTTTTTTTTTTTTTTTTTTTTTT MONMO3      TELAPSE       26.12 TCPU       24.68
 NUMERICALLY INTEGRATED DENSITY     80.0000000294
 TTTTTTTTTTTTTTTTTTTTTTTTTTTTTT NUMDFT      TELAPSE       26.40 TCPU       24.96
 CYC   7 ETOT(AU) -6.103894461700E+02 DETOT -3.60E-08 tst  8.13E-10 PX  5.62E-05
 TTTTTTTTTTTTTTTTTTTTTTTTTTTTTT DIIS        TELAPSE       26.42 TCPU       24.97
 DIIS TEST: 0.22849E-08 AT SCF   CYCLE   7 - DIIS ACTIVE - HISTORY:     7 CYCLES
 TTTTTTTTTTTTTTTTTTTTTTTTTTTTTT FDIK        TELAPSE       27.44 TCPU       24.97
 INSULATING STATE
 TOP OF VALENCE BANDS -    BAND     40; K    7; EIG -3.5790764E-01 AU
 TOP OF VALENCE BANDS -    BAND     40; K    1; EIG -3.6376827E-01 AU
 BOTTOM OF VIRTUAL BANDS - BAND     41; K    1; EIG -2.0253045E-03 AU
 INDIRECT ENERGY BAND GAP:   9.6841 eV
 TTTTTTTTTTTTTTTTTTTTTTTTTTTTTT PDIG        TELAPSE       27.46 TCPU       24.98
 CHARGE NORMALIZATION FACTOR   1.00000000
 TOTAL ATOMIC CHARGES:
   8.9426053   8.9426053   8.9426053   8.9426053   8.9349160   8.9349160
   8.9349160   8.9349160   0.5262096   0.5262096   0.5262096   0.5262096
   0.5262096   0.5262096   0.5262096   0.5262096   0.5391911   0.5391911
   0.5391911   0.5391911   0.5308683   0.5308683   0.5308683   0.5308683
 TTTTTTTTTTTTTTTTTTTTTTTTTTTTTT MOQGAD      TELAPSE       27.46 TCPU       24.99
 TTTTTTTTTTTTTTTTTTTTTTTTTTTTTT SHELLXN     TELAPSE       29.07 TCPU       26.56
 +++ ENERGIES IN A.U. +++
 ::: EXT EL-POLE                                  -6.0612621924137E+02
 ::: EXT EL-SPHEROPOLE                             7.1961824244094E+00
 ::: BIELET ZONE E-E                               7.7273468135679E+02
 ::: TOTAL E-E                                     1.7380464453983E+02
 ::: TOTAL E-N + N-E                              -1.2330575590706E+03
 ::: TOTAL N-N                                    -1.1186434441511E+02
 ::: KINETIC ENERGY                                6.0652067056281E+02
 ::: PSEUDO TOTAL   ENERGY                        -5.6459658838312E+02
 ::: VIRIAL COEFFICIENT                            1.0357983642197E+00
 TTTTTTTTTTTTTTTTTTTTTTTTTTTTTT MONMO3      TELAPSE       29.55 TCPU       27.04
 NUMERICALLY INTEGRATED DENSITY     80.0000000293
 TTTTTTTTTTTTTTTTTTTTTTTTTTTTTT NUMDFT      TELAPSE       29.92 TCPU       27.42
 CYC   8 ETOT(AU) -6.103894461683E+02 DETOT  1.66E-09 tst  2.03E-11 PX  5.62E-05

 == SCF ENDED - CONVERGENCE ON ENERGY      E(AU) -6.1038944616834E+02 CYCLES   8


 ENERGY EXPRESSION=HARTREE+FOCK EXCH*0.00000+(HSE-3c     EXCH)*1.00000+PBEh-3c    CORR


 TOTAL ENERGY(DFT)(AU)(  8) -6.1038944616834E+02 DE 1.7E-09 tester 2.0E-11
 TTTTTTTTTTTTTTTTTTTTTTTTTTTTTT EDFT        TELAPSE       29.92 TCPU       27.42
 
 INFORMATION **** DFTD3 ENERGY **** CALCULATE DFTD3 ENERGY

           DFT-D V3(BJ)
 DF                                         hse3c     
 parameters
 s6       :    1.0000
 s8       :    0.0000
 a1       :    0.4411
 a2       :    4.5182
 k1 k3    :   16.0000   -4.0000
 Cutoff   :   50.2022
 CN-Cutoff:   21.1671
 
 Edisp /kcal,au:   -14.1271 -0.02251304

 E6    /kcal :   -15.1369
 E8    /kcal :     0.0000
 E6(ABC) "   :   1.009778
 
 INFORMATION **** DFTD3 ENERGY **** NORMAL TERMINATION OF DFTD3 MODULE

 GCP ENERGY CALCULATION
  level           hse3c               basis:hse3c
  Nbf            152
  Atoms           24

  Parameters: 
  sigma     1.0000
  eta       1.4086
  alpha     0.2908
  beta      1.9526

  dmp_scal      4.0000
  dmp_exp       6.0000
 cutoffs: 
   distance [bohr] 60.0
   noise    [a.u.] 2.2E-16
 SR-damping   T
 ** gCP correction **
  Egcp:        0.1059490613 / (a.u.) ||      66.4840 / (kcal/mol)
 INFORMATION **** GCP **** NORMAL TERMINATION OF GCP MODULE

 *******************************************************************************

 DFT-D3-GCP DISPERSION AND COUNTERPOISE CORRECTION

 D3 DISPERSION ENERGY (AU)      -2.2513036911954E-02
 GCP ENERGY (AU)                 1.0594906134535E-01
 TOTAL ENERGY + DISP + GCP (AU) -6.1030601014391E+02

 *******************************************************************************

 EIGENVECTORS IN FORTRAN UNIT  8
 TTTTTTTTTTTTTTTTTTTTTTTTTTTTTT END         TELAPSE       30.71 TCPU       28.06
 EEEEEEEEEE TERMINATION  DATE 25 03 2019 TIME 22:22:32.2
NODE    0 CPU TIME =        28.064
NODE    1 CPU TIME =        29.269
NODE    2 CPU TIME =        27.996
NODE    3 CPU TIME =        29.088
NODE    4 CPU TIME =        27.795
NODE    5 CPU TIME =        28.356
NODE    6 CPU TIME =        29.173
NODE    7 CPU TIME =        29.004
    TOTAL CPU TIME =       228.745
