 PROCESS            0  OF            8  WORKING
 PROCESS            1  OF            8  WORKING

         
 *******************************************************************************
 *                                                                             *
 *                               CRYSTAL17                                     *
 *                      public : 1.0.1 - Feb 1st, 2017                         *
 *                       HTTP://WWW.CRYSTAL.UNITO.IT                           *
 *                                                                             *
 *                              MAIN AUTHORS                                   *
 *                                                                             *
 *  R. DOVESI(1,11), V.R. SAUNDERS(2), C. ROETTI(1,11), R. ORLANDO(1,11),      *
 *  C.M. ZICOVICH-WILSON(1,3), F. PASCALE(4), B. CIVALLERI(1,11),              *
 *  K. DOLL(5), N.M. HARRISON(2,6), I.J. BUSH(7), Ph. D'ARCO(8),               *
 *  M. LLUNELL(9), M. CAUSA'(10), Y. NOEL(8), L. MASCHIO(1,11), A. ERBA(1,11)  *
 *  M. RE'RAT(14), S. CASASSA(1,11)                                            *
 *                                                                             *
 *        CONTRIBUTIONS TO THE CODE HAVE ALSO BEEN GIVEN BY                    *
 *                                                                             *
 *  M. FERRABONE(1,11), M. DE LA PIERRE(1,11), M. FERRERO(1,11),               *
 *  J. BAIMA(1,11), E. ALBANESE(1,11), M.F. PEINTINGER(12), R. BAST(13),       *
 *  B. KIRTMAN(15), V. LACIVITA(1,11), R. DEMICHELIS(1,16)                     *
 *  G. BRANDEBURG(17), S. SALUSTRO(1,11), G. SANSONE(1,11)                     *
 *  M.T. RUGGIERO(18)                                                          *
 *                                                                             *
 * (1) THEORETICAL CHEMISTRY GROUP - UNIVERSITA' DI TORINO - TORINO (ITALY)    *

 * (2) COMPUTATIONAL SCIENCE & ENGINEERING DEPARTMENT - STFC DARESBURY (UK)    *
 * (3) UNIVERSIDAD AUTONOMA DEL ESTADO DE MORELOS - CUERNAVACA (MEXICO)        *
 * (4) UNIVERSITE' DE LORRAINE - NANCY (FRANCE)                                *
 * (5) UNIVERSITAET STUTTGART- STUTTGART (GERMANY)                             *
 * (6) IMPERIAL COLLEGE - LONDON (UK)                                          *
 * (7) OXFORD E-RESEARCH CENTRE - OXFORD (UK)                                  *
 * (8) UPMC - SORBONNE UNIVERSITES - PARIS (FRANCE)                            *
 * (9) UNIVERSIDAD DE BARCELONA - BARCELONA (SPAIN)                            *
 *(10) UNIVERSITA' DI NAPOLI "FEDERICO II" - NAPOLI (ITALY)                    *
 *(11) NIS - NANOSTRUCTURED INTERFACES AND SURFACES - TORINO (ITALY)           *
 *(12) MPI FUER CHEMISCHE ENERGIEKONVERSION - MUELHEIM AN DER RUHR (GERMANY)   *
 *(13) UNIVERSITY OF TROMSO - TROMSO (NORWAY)                                  *
 *(14) UNIVERSITE' DE PAU ET DES PAYS DE L'ADOUR - PAU (FRANCE)                *
 *(15) UNIVERSITY OF CALIFORNIA SANTA BARBARA - SANTA BARBARA (USA)            *
 *(16) CURTIN UNIVERSITY - PERTH (AUSTRALIA)                                   *
 *(17) UNIVERSITY COLLEGE LONDON - LONDON (UK)                                 *
 *(18) CAMBRIDGE UNIVERSITY - CAMBRIDGE (UK)                                   *
 *                                                                             *
 *******************************************************************************
 EEEEEEEEEE STARTING  DATE 25 03 2019 TIME 17:48:06.7
 PROCESS            4  OF            8  WORKING
 PROCESS            3  OF            8  WORKING
 !drive by JGB                                                                   
 PROCESS            5  OF            8  WORKING

 CRYSTAL CALCULATION
 (INPUT ACCORDING TO THE INTERNATIONAL TABLES FOR X-RAY CRYSTALLOGRAPHY)
 CRYSTAL FAMILY                       :  MONOCLINIC  
 CRYSTAL CLASS  (GROTH - 1921)        :  MONOCLINIC DOMATIC                   

 SPACE GROUP (NONCENTROSYMMETRIC)     :  C C             

 LATTICE PARAMETERS  (ANGSTROMS AND DEGREES) - CONVENTIONAL CELL
        A           B           C        ALPHA        BETA       GAMMA
     4.35963    15.94709     4.44733    90.00000   102.96674    90.00000
 PROCESS            6  OF            8  WORKING


 NUMBER OF IRREDUCIBLE ATOMS IN THE CONVENTIONAL CELL:    9

 INPUT COORDINATES

 ATOM AT. N.              COORDINATES
   1   8     7.523993895793E-01  9.326741826530E-02  9.117412891465E-01
   2   8     3.640442186871E-01  9.135320336867E-01  8.085763017302E-01
   3   8     1.717730982837E-01  2.372698675517E-01  5.110097363094E-01
   4   1     6.299859418435E-01  7.491584778867E-02  7.122607244752E-01
   5   1     7.588180013994E-01  1.543418658802E-01  9.002585404770E-01
   6   1     5.037466394055E-01  9.134203474069E-01  6.628852696659E-01
   7   1     1.610413636984E-01  9.319412245663E-01  6.889699209229E-01
   8   1     2.545942305974E-01  1.872569769828E-01  4.289720742410E-01
   9   1     2.847071165057E-01  2.412522461918E-01  7.248861430318E-01

 *******************************************************************************

 << INFORMATION >>: FROM NOW ON, ALL COORDINATES REFER TO THE PRIMITIVE CELL

 *******************************************************************************

 LATTICE PARAMETERS  (ANGSTROMS AND DEGREES) - PRIMITIVE CELL
       A          B          C        ALPHA      BETA     GAMMA        VOLUME
    8.26614    8.26614    4.44733    86.60775  93.39225  30.57992    150.654429
 PROCESS            2  OF            8  WORKING
 PROCESS            7  OF            8  WORKING

 COORDINATES OF THE EQUIVALENT ATOMS (FRACTIONAL UNITS)

 N. ATOM EQUIV AT. N.          X                  Y                  Z

   1   1   1    8 O    -1.54333192155E-01  3.40868028686E-01 -8.82587108535E-02
   2   1   2    8 O    -3.40868028686E-01  1.54333192155E-01  4.11741289146E-01

   3   2   1    8 O     2.77576252374E-01 -4.50512185000E-01 -1.91423698270E-01
   4   2   2    8 O     4.50512185000E-01 -2.77576252374E-01  3.08576301730E-01

   5   3   1    8 O     4.09042965835E-01  6.54967692680E-02 -4.88990263691E-01
   6   3   2    8 O    -6.54967692680E-02 -4.09042965835E-01  1.10097363094E-02

   7   4   1    1 H    -2.95098210368E-01  4.44929905945E-01 -2.87739275525E-01
   8   4   2    1 H    -4.44929905945E-01  2.95098210368E-01  2.12260724475E-01

   9   5   1    1 H    -8.68401327204E-02  3.95523864481E-01 -9.97414595230E-02
  10   5   2    1 H    -3.95523864481E-01  8.68401327204E-02  4.00258540477E-01

  11   6   1    1 H     4.17166986812E-01  4.09673708001E-01 -3.37114730334E-01
  12   6   2    1 H    -4.09673708001E-01 -4.17166986812E-01  1.62885269666E-01

  13   7   1    1 H     9.29825882647E-02 -2.29100139132E-01 -3.11030079077E-01
  14   7   2    1 H     2.29100139132E-01 -9.29825882647E-02  1.88969920923E-01

  15   8   1    1 H     4.41851207580E-01 -6.73372536146E-02  4.28972074241E-01
  16   8   2    1 H     6.73372536146E-02 -4.41851207580E-01 -7.10279257590E-02

  17   9   1    1 H    -4.74040637303E-01 -4.34548703139E-02 -2.75113856968E-01
  18   9   2    1 H     4.34548703139E-02  4.74040637303E-01  2.24886143032E-01

 NUMBER OF SYMMETRY OPERATORS         :    2
 *******************************************************************************
 * GEOMETRY EDITING - INPUT COORDINATES ARE GIVEN IN ANGSTROM         
 *******************************************************************************

 GEOMETRY NOW FULLY CONSISTENT WITH THE GROUP

 GCALCO - MAX INDICES DIRECT LATTICE VECTOR    15    15    14
 NO.OF VECTORS CREATED 6999 STARS 1917 RMAX   119.34922 BOHR

 GEOMETRY FOR WAVE FUNCTION - DIMENSIONALITY OF THE SYSTEM    3
 (NON PERIODIC DIRECTION: LATTICE PARAMETER FORMALLY SET TO 500)
 *******************************************************************************
 LATTICE PARAMETERS (ANGSTROMS AND DEGREES) - BOHR = 0.5291772083 ANGSTROM
 PRIMITIVE CELL - CENTRING CODE 4/0 VOLUME=   150.654429 - DENSITY  1.191 g/cm^3
         A              B              C           ALPHA      BETA       GAMMA 
     8.26613771     8.26613771     4.44732580    86.607751  93.392249  30.579918
 *******************************************************************************
 ATOMS IN THE ASYMMETRIC UNIT    9 - ATOMS IN THE UNIT CELL:   18
     ATOM                 X/A                 Y/B                 Z/C    
 *******************************************************************************
      1 T   8 O    -1.543331921554E-01  3.408680286860E-01 -8.825871085353E-02
      2 F   8 O    -3.408680286860E-01  1.543331921554E-01  4.117412891465E-01
      3 T   8 O     2.775762523738E-01 -4.505121850004E-01 -1.914236982698E-01
      4 F   8 O     4.505121850004E-01 -2.775762523738E-01  3.085763017302E-01
      5 T   8 O     4.090429658354E-01  6.549676926800E-02 -4.889902636906E-01
      6 F   8 O    -6.549676926800E-02 -4.090429658354E-01  1.100973630940E-02
      7 T   1 H    -2.950982103678E-01  4.449299059452E-01 -2.877392755248E-01
      8 F   1 H    -4.449299059452E-01  2.950982103678E-01  2.122607244752E-01
      9 T   1 H    -8.684013272040E-02  3.955238644808E-01 -9.974145952296E-02
     10 F   1 H    -3.955238644808E-01  8.684013272040E-02  4.002585404770E-01
     11 T   1 H     4.171669868124E-01  4.096737080014E-01 -3.371147303341E-01
     12 F   1 H    -4.096737080014E-01 -4.171669868124E-01  1.628852696659E-01
     13 T   1 H     9.298258826469E-02 -2.291001391321E-01 -3.110300790771E-01
     14 F   1 H     2.291001391321E-01 -9.298258826469E-02  1.889699209229E-01
     15 T   1 H     4.418512075802E-01 -6.733725361460E-02  4.289720742410E-01
     16 F   1 H     6.733725361460E-02 -4.418512075802E-01 -7.102792575900E-02
     17 T   1 H    -4.740406373025E-01 -4.345487031390E-02 -2.751138569682E-01
     18 F   1 H     4.345487031390E-02  4.740406373025E-01  2.248861430318E-01

 TRANSFORMATION MATRIX PRIMITIVE-CRYSTALLOGRAPHIC CELL
  1.0000  1.0000  0.0000 -1.0000  1.0000  0.0000  0.0000  0.0000  1.0000

 *******************************************************************************
 CRYSTALLOGRAPHIC CELL (VOLUME=        301.30885759)
         A              B              C           ALPHA      BETA       GAMMA 
     4.35962729    15.94709316     4.44732580    90.000000 102.966740  90.000000

 COORDINATES IN THE CRYSTALLOGRAPHIC CELL
     ATOM                 X/A                 Y/B                 Z/C    
 *******************************************************************************
      1 T   8 O    -2.476006104207E-01  9.326741826530E-02 -8.825871085353E-02
      2 F   8 O    -2.476006104207E-01 -9.326741826530E-02  4.117412891465E-01
      3 T   8 O     3.640442186871E-01 -8.646796631328E-02 -1.914236982698E-01
      4 F   8 O     3.640442186871E-01  8.646796631328E-02  3.085763017302E-01
      5 T   8 O     1.717730982837E-01  2.372698675517E-01 -4.889902636906E-01
      6 F   8 O     1.717730982837E-01 -2.372698675517E-01  1.100973630940E-02
      7 T   1 H    -3.700140581565E-01  7.491584778867E-02 -2.877392755248E-01
      8 F   1 H    -3.700140581565E-01 -7.491584778867E-02  2.122607244752E-01
      9 T   1 H    -2.411819986006E-01  1.543418658802E-01 -9.974145952296E-02
     10 F   1 H    -2.411819986006E-01 -1.543418658802E-01  4.002585404770E-01
     11 T   1 H    -4.962533605945E-01 -8.657965259312E-02 -3.371147303341E-01
     12 F   1 H    -4.962533605945E-01  8.657965259312E-02  1.628852696659E-01
     13 T   1 H     1.610413636984E-01 -6.805877543371E-02 -3.110300790771E-01
     14 F   1 H     1.610413636984E-01  6.805877543371E-02  1.889699209229E-01
     15 T   1 H     2.545942305974E-01  1.872569769828E-01  4.289720742410E-01
     16 F   1 H     2.545942305974E-01 -1.872569769828E-01 -7.102792575900E-02
     17 T   1 H     2.847071165057E-01  2.412522461918E-01 -2.751138569682E-01
     18 F   1 H     2.847071165057E-01 -2.412522461918E-01  2.248861430318E-01

 T = ATOM BELONGING TO THE ASYMMETRIC UNIT

 ****    2 SYMMOPS - TRANSLATORS IN FRACTIONAL UNITS
 **** MATRICES AND TRANSLATORS IN THE CRYSTALLOGRAPHIC REFERENCE FRAME
   V INV                    ROTATION MATRICES                   TRANSLATORS
   1   1  1.00  0.00  0.00  0.00  1.00  0.00  0.00  0.00  1.00  0.00  0.00  0.00
   2   2 -0.00 -1.00  0.00 -1.00 -0.00  0.00  0.00  0.00  1.00  0.00  0.00  0.50

 DIRECT LATTICE VECTORS CARTESIAN COMPONENTS (ANGSTROM)
          X                    Y                    Z
   0.217981364500E+01   0.797354658000E+01   0.000000000000E+00
  -0.217981364500E+01   0.797354658000E+01   0.000000000000E+00
  -0.997914969903E+00   0.272320165287E-15   0.433392114421E+01


 CARTESIAN COORDINATES - PRIMITIVE CELL
 *******************************************************************************
 *      ATOM          X(ANGSTROM)         Y(ANGSTROM)         Z(ANGSTROM)
 *******************************************************************************
    1     8 O    -9.913716894256E-01  1.487344207869E+00 -3.825062931284E-01
    2     8 O    -1.490329174377E+00 -1.487344207869E+00  1.784454278974E+00
    3     8 O     1.778121684653E+00 -1.378912714154E+00 -8.296152134334E-01
    4     8 O     1.279164199701E+00  1.378912714154E+00  1.337345358669E+00
    5     8 O     2.389224213360E-01  3.783764681908E+00  2.214675901086E+00
    6     8 O     7.378799062876E-01 -3.783764681908E+00  4.771532898343E-02
    7     1 H    -1.325984055147E+00  1.194690003846E+00 -1.247039330215E+00
    8     1 H    -1.824941540099E+00 -1.194690003846E+00  9.199212418874E-01
    9     1 H    -9.519301273779E-01  2.461304113680E+00 -4.322716203804E-01
   10     1 H    -1.450887612330E+00 -2.461304113680E+00  1.734688951722E+00
   11     1 H    -1.827067857627E+00 -1.380693785663E+00 -1.461028657818E+00
   12     1 H     2.033601947422E+00  1.380693785663E+00  7.059319142846E-01
   13     1 H     1.012461896000E+00 -1.085339632197E+00 -1.347979836196E+00
   14     1 H     5.135044110479E-01  1.085339632197E+00  8.189807359065E-01
   15     1 H     6.818583010334E-01  2.986204456805E+00  1.859131142827E+00
   16     1 H     1.180815785985E+00 -2.986204456805E+00 -3.078294292760E-01
   17     1 H     1.515757151072E+00  3.847272045080E+00 -1.192321761778E+00
   18     1 H     1.016799666120E+00 -3.847272045080E+00  9.746388103243E-01

 *******************************************************************************
 STARTING BASIS SET HANDLING 
 *******************************************************************************

 Loading internal basis set: DEF2-MSVP           

 Please cite in your publication:
 Fully Optimized Contracted Gaussian Basis Sets for Atoms Li to Kr. A. Schäfer, 
 H. Horn and R. Ahlrichs; J. Chem. Phys. 97, 2571 (1992).                       
                                                                                
                    
 S. Grimme, J. G. Brandenburg, C. Bannwarth, and A. Hansen, J. Chem. Phys., 143,
  054107 (2015).                                                                
                                                                                
                    

 *******************************************************************************
 LOCAL ATOMIC FUNCTIONS BASIS SET
 *******************************************************************************
   ATOM   X(AU)   Y(AU)   Z(AU)  N. TYPE  EXPONENT  S COEF   P COEF   D/F/G COEF
 *******************************************************************************
   1 O   -1.873   2.811  -0.723
                                  1 S  
                                         6.773E+03 1.727E-03 0.000E+00 0.000E+00
                                         1.017E+03 1.325E-02 0.000E+00 0.000E+00
                                         2.313E+02 6.603E-02 0.000E+00 0.000E+00
                                         6.501E+01 2.353E-01 0.000E+00 0.000E+00
                                         2.050E+01 5.498E-01 0.000E+00 0.000E+00
                                  2 S  
                                         6.716E+00 1.000E+00 0.000E+00 0.000E+00
                                  3 S  
                                         1.147E+00 1.000E+00 0.000E+00 0.000E+00
                                  4 S  
                                         3.342E-01 1.000E+00 0.000E+00 0.000E+00
                           5-     7 P  
                                         1.769E+01 0.000E+00 4.359E-02 0.000E+00
                                         3.854E+00 0.000E+00 2.318E-01 0.000E+00
                                         1.047E+00 0.000E+00 5.146E-01 0.000E+00
                           8-    10 P  
                                         2.759E-01 0.000E+00 1.000E+00 0.000E+00
                          11-    15 D  
                                         8.000E-01 0.000E+00 0.000E+00 1.000E+00
   2 O   -2.816  -2.811   3.372
   3 O    3.360  -2.606  -1.568
   4 O    2.417   2.606   2.527
   5 O    0.451   7.150   4.185
   6 O    1.394  -7.150   0.090
   7 H   -2.506   2.258  -2.357
                                 91 S  
                                         1.874E+01 1.968E-02 0.000E+00 0.000E+00
                                         2.826E+00 1.380E-01 0.000E+00 0.000E+00
                                         6.401E-01 4.783E-01 0.000E+00 0.000E+00
                                 92 S  
                                         1.756E-01 1.000E+00 0.000E+00 0.000E+00
   8 H   -3.449  -2.258   1.738
   9 H   -1.799   4.651  -0.817
  10 H   -2.742  -4.651   3.278
  11 H   -3.453  -2.609  -2.761
  12 H    3.843   2.609   1.334
  13 H    1.913  -2.051  -2.547
  14 H    0.970   2.051   1.548
  15 H    1.289   5.643   3.513
  16 H    2.231  -5.643  -0.582
  17 H    2.864   7.270  -2.253
  18 H    1.921  -7.270   1.842

 *******************************************************************************
 FINISHED BASIS SET HANDLING 
 *******************************************************************************

 INFORMATION **** SET_MPP **** PCRYSTAL CALCULATION
 INFORMATION **** READM2 **** NEW DEFAULT: FOCK/KS MATRIX MIXING SET TO 30 %
 INFORMATION **** READM2 **** NEW DEFAULT: FULL DIRECT SCF MODE
 INFORMATION **** READM2 **** NEW DEFAULT: COULOMB BIPOLAR BUFFER SET TO 32 Mb
 INFORMATION **** READM2 **** NEW DEFAULT: EXCHANGE BIPOLAR BUFFER SET TO 32 Mb

 *******************************************************************************
 NEW DEFAULT: DFT INTEGRATION GRID INCREASED TO XLGRID
 NEW DEFAULT: DIIS ACCELERATOR ACTIVE
 USE KEYWORD NODIIS TO TURN IT OFF
 *******************************************************************************

 INFORMATION **** RDDFTP **** HSE-3c calculation
 INFORMATION **** RDDFTP **** HSE screened hybrid functional combined with D3 and gCP

PLEASE CITE:
(1) HSE-3c Reference
 J. G. Brandenburg, E. Caldeweyer, and S. Grimme, 
 Phys. Chem. Chem. Phys. 18, 15519 (2016)
(2) DFT-D3 Reference
 S. Grimme, J. Antony, S. Ehrlich,
 and H. Krieg, J. Chem. Phys. 132, 154104 (2010)
(3) gCP Reference
 H. Kruse and S. Grimme J. Chem. Phys, 136, 154101 (2012)
 J. G. Brandenburg, M. Alessio, B. Civalleri, M. F. Peintinger
 T. Bredow, and S. Grimme, J. Phys. Chem. A, 117, 9282 (2013) 

 WARNING **** RDDFTP **** HSE3c-HJS ACTIVE
 RANGE SEPARATION - OMEGA:   0.110000000000000     
 WARNING **** RDDFTP **** HSE-3c has to be combined with def2-mSVP basis set
 WARNING **** RDDFTP **** Note: Harmonic frequencies are scaled by 0.95
 WARNING **** RDDFTP **** as recommended in original publication
 INFORMATION **** BIPOSIZE **** COULOMB BIPOLAR BUFFER SET TO    60000000
 INFORMATION **** EXCHSIZE **** EXCHANGE BIPOLAR BUFFER SIZE SET TO    40000000
 *******************************************************************************
 N. OF ATOMS PER CELL        18  COULOMB OVERLAP TOL         (T1) 10**   -6
 NUMBER OF SHELLS            66  COULOMB PENETRATION TOL     (T2) 10**   -6
 NUMBER OF AO               114  EXCHANGE OVERLAP TOL        (T3) 10**   -6
 N. OF ELECTRONS PER CELL    60  EXCHANGE PSEUDO OVP (F(G))  (T4) 10**   -6
 CORE ELECTRONS PER CELL     12  EXCHANGE PSEUDO OVP (P(G))  (T5) 10**  -12
 N. OF SYMMETRY OPERATORS     2  POLE ORDER IN MONO ZONE                  4
 *******************************************************************************
 TYPE OF CALCULATION :  RESTRICTED CLOSED SHELL
 KOHN-SHAM HAMILTONIAN

 (EXCHANGE)[CORRELATION] FUNCTIONAL:(HSE-3c)[PBEh-3c]

 RANGE-SEPARATED HYBRID FUNCTIONAL 
 OMEGA (SHORT-RANGE)[LONG-RANGE]:(    0.1100)[    0.0000]

 HYBRID EXCHANGE - PERCENTAGE OF FOCK EXCHANGE    42.0000

 CAPPA:IS1  3;IS2  3;IS3  3; K PTS MONK NET  10; SYMMOPS:K SPACE   4;G SPACE   2

 *******************************************************************************
 MAX NUMBER OF SCF CYCLES      50  CONVERGENCE ON DELTAP        10**-16
 WEIGHT OF F(I) IN F(I+1)      30% CONVERGENCE ON ENERGY        10**- 6
 S(K) EIGENV. THRESHOLD  10*10.**-4
 SHRINK. FACT.(MONKH.)    3  3  3  NUMBER OF K POINTS IN THE IBZ     10
 SHRINKING FACTOR(GILAT NET)    3  NUMBER OF K POINTS(GILAT NET)     10
 *******************************************************************************
 *** K POINTS COORDINATES (OBLIQUE COORDINATES IN UNITS OF IS =  3)
   1-R(  0  0  0)   2-C(  1  0  0)   3-C(  1  1  0)   4-C(  2  1  0)
   5-C(  0  0  1)   6-C(  1  0  1)   7-C(  2  0  1)   8-C(  1  1  1)
   9-C(  2  1  1)  10-C(  1  2  1)

 DIRECT LATTICE VECTORS COMPON. (A.U.)     RECIP. LATTICE VECTORS COMPON. (A.U.) 
        X            Y            Z              X            Y            Z
    4.1192508   15.0678194    0.0000000      0.7626612    0.2084968    0.1756079
   -4.1192508   15.0678194    0.0000000     -0.7626612    0.2084968   -0.1756079
   -1.8857860    0.0000000    8.1899240      0.0000000    0.0000000    0.7671848

 DISK SPACE FOR EIGENVECTORS (FTN 10)      246924 REALS

 SYMMETRY ADAPTION OF THE BLOCH FUNCTIONS ENABLED
 TTTTTTTTTTTTTTTTTTTTTTTTTTTTTT gordsh1     TELAPSE        0.10 TCPU        0.05

 MATRIX SIZE: P(G)   70590, F(G)   12228, P(G) IRR   18398, F(G) IRR    6302
 MAX G-VECTOR INDEX FOR 1- AND 2-ELECTRON INTEGRALS 125

 TTTTTTTTTTTTTTTTTTTTTTTTTTTTTT INPUT       TELAPSE        0.11 TCPU        0.06

 NEIGHBORS OF THE NON-EQUIVALENT ATOMS

 N = NUMBER OF NEIGHBORS AT DISTANCE R
    ATOM  N     R/ANG      R/AU   NEIGHBORS (ATOM LABELS AND CELL INDICES)
   1 O    1     0.9721     1.8371    7 H    0 0 0
   1 O    1     0.9760     1.8444    9 H    0 0 0
   1 O    1     1.7255     3.2607   12 H   -1 1 0
   1 O    1     1.9672     3.7174   14 H    0 0 0
   1 O    1     2.7081     5.1176    4 O   -1 1 0
   1 O    1     2.7733     5.2408    6 O    0 1 0

   3 O    1     0.9701     1.8333   13 H    0 0 0
   3 O    1     0.9838     1.8591   11 H    1-1 0
   3 O    1     1.7923     3.3870   16 H    0 0 0
   3 O    1     1.9150     3.6188    8 H    1-1 0
   3 O    1     2.7081     5.1176    2 O    1-1-1
   3 O    1     2.7632     5.2216    6 O    0 0 0

   5 O    1     0.9701     1.8331   17 H    0 0 1
   5 O    1     0.9791     1.8503   15 H    0 0 0
   5 O    1     1.8596     3.5141   10 H    1 0 0
   5 O    1     1.9027     3.5957   18 H    0 1 0
   5 O    1     2.7632     5.2216    4 O    0 0 0
   5 O    2     2.7723     5.2390    6 O    0 1 0    6 O    1 0 1

   7 H    1     0.9721     1.8371    1 O    0 0 0
   7 H    1     1.5518     2.9325    9 H    0 0 0
   7 H    1     1.9150     3.6188    4 O   -1 1-1
   7 H    1     2.2020     4.1612   12 H   -1 1 0
   7 H    1     2.3882     4.5131   12 H   -1 1-1
   7 H    1     2.5593     4.8363   15 H   -1 1-1

   9 H    1     0.9760     1.8444    1 O    0 0 0
   9 H    1     1.5518     2.9325    7 H    0 0 0
   9 H    1     1.8596     3.5141    6 O    0 1 0
   9 H    1     2.0860     3.9420   12 H   -1 1 0
   9 H    1     2.1900     4.1385   18 H    0 1 0
   9 H    1     2.3678     4.4745   14 H    0 0 0

  11 H    1     0.9838     1.8591    3 O   -1 1 0
  11 H    1     1.5526     2.9341   13 H   -1 1 0
  11 H    1     1.7255     3.2607    2 O    0 0-1
  11 H    1     2.0860     3.9420   10 H    0 0-1
  11 H    1     2.2020     4.1612    8 H    0 0-1
  11 H    1     2.3882     4.5131    8 H    0 0 0

  13 H    1     0.9701     1.8333    3 O    0 0 0
  13 H    1     1.5526     2.9341   11 H    1-1 0
  13 H    1     1.9672     3.7174    2 O    0 0-1
  13 H    1     2.1734     4.1071   16 H    0 0 0
  13 H    1     2.3678     4.4745   10 H    0 0-1
  13 H    1     2.7336     5.1657    8 H    1-1 0

  15 H    1     0.9791     1.8503    5 O    0 0 0
  15 H    1     1.5534     2.9355   17 H    0 0 1
  15 H    1     1.7923     3.3870    4 O    0 0 0
  15 H    1     2.1734     4.1071   14 H    0 0 0
  15 H    1     2.3421     4.4260   18 H    0 1 0
  15 H    1     2.3947     4.5254   12 H    0 0 0

  17 H    1     0.9701     1.8331    5 O    0 0-1
  17 H    1     1.5534     2.9355   15 H    0 0-1
  17 H    1     1.9027     3.5957    6 O    1 0 0
  17 H    1     2.1900     4.1385   10 H    1 0-1
  17 H    1     2.3421     4.4260   16 H    1 0 0
  17 H    1     2.4654     4.6589    9 H    1-1 0


 SYMMETRY ALLOWED INTERNAL DEGREE(S) OF FREEDOM:  25
 TTTTTTTTTTTTTTTTTTTTTTTTTTTTTT SYMM        TELAPSE        0.18 TCPU        0.13
 TTTTTTTTTTTTTTTTTTTTTTTTTTTTTT INT_SCREEN  TELAPSE        0.18 TCPU        0.13

 DFT PARAMETERS

     ATOM       ELECTRONS   NET CHARGE   R(ANGSTROM)
   1   8  O       8.0000      0.0000     0.74000000
   7   1  H       1.0000      0.0000     1.11000000

 SIZE OF GRID=     199374
 TTTTTTTTTTTTTTTTTTTTTTTTTTTTTT MAKE_GRID2  TELAPSE        4.96 TCPU        4.91
 BECKE WEIGHT FUNCTION
 RADSAFE =     2.00
 TOLERANCES - DENSITY:10**- 6; POTENTIAL:10**- 9; GRID WGT:10**-14

 RADIAL INTEGRATION  - INTERVALS (POINTS,UPPER LIMIT):            1( 75,  4.0*R)

 ANGULAR INTEGRATION - INTERVALS (ACCURACY LEVEL [N. POINTS] UPPER LIMIT):
  1(  4[  86]   0.2)  2(  8[ 194]   0.5)  3( 12[ 350]   0.9)  4( 16[ 974]   3.5)
  5( 12[ 350]9999.0)
 TTTTTTTTTTTTTTTTTTTTTTTTTTTTTT INT_CALC    TELAPSE        4.98 TCPU        4.93
 EEEEEEEEEE INT_CALC TERMINATION  DATE 25 03 2019 TIME 17:48:11.6

 *******************************************************************************
 !drive by JGB                                                                   
 CRYSTAL - SCF - TYPE OF CALCULATION :  RESTRICTED CLOSED SHELL
 *******************************************************************************

 CAPPA:IS1  3;IS2  3;IS3  3; K PTS MONK NET  10; SYMMOPS:K SPACE   4;G SPACE   2

 TTTTTTTTTTTTTTTTTTTTTTTTTTTTTT SDIK        TELAPSE        5.07 TCPU        4.97

 AAAAAAAAAAAAAAAAAAAAAAAAAAAAAAAAAAAAAAAAAAAAAAAAAAAAAAAAAAAAAAAAAAAAAAAAAAAAAAA
         ATOMIC WAVEFUNCTION(S)


 NUCLEAR CHARGE  8.0  SYMMETRY SPECIES            S    P
 N. ELECTRONS    8.0  NUMBER OF PRIMITIVE GTOS    8    4
                      NUMBER OF CONTRACTED GTOS   4    2
                      NUMBER OF CLOSED SHELLS     2    0
                      OPEN SHELL OCCUPATION       0    4

  ZNUC SCFIT  TOTAL HF ENERGY   KINETIC ENERGY   VIRIAL THEOREM ACCURACY
   8.0  12   -7.477373220E+01  7.477365593E+01 -2.000001020E+00  3.8E-06

 NUCLEAR CHARGE  1.0  SYMMETRY SPECIES            S
 N. ELECTRONS    1.0  NUMBER OF PRIMITIVE GTOS    4
                      NUMBER OF CONTRACTED GTOS   2
                      NUMBER OF CLOSED SHELLS     0
                      OPEN SHELL OCCUPATION       1

  ZNUC SCFIT  TOTAL HF ENERGY   KINETIC ENERGY   VIRIAL THEOREM ACCURACY
   1.0   1   -4.977266687E-01  5.190767460E-01 -1.958869132E+00  1.8E-16

 AAAAAAAAAAAAAAAAAAAAAAAAAAAAAAAAAAAAAAAAAAAAAAAAAAAAAAAAAAAAAAAAAAAAAAAAAAAAAAA

 CHARGE NORMALIZATION FACTOR   1.00000000
 TOTAL ATOMIC CHARGES:
   8.0000000   8.0000000   8.0000000   8.0000000   8.0000000   8.0000000
   1.0000000   1.0000000   1.0000000   1.0000000   1.0000000   1.0000000
   1.0000000   1.0000000   1.0000000   1.0000000   1.0000000   1.0000000
 TTTTTTTTTTTTTTTTTTTTTTTTTTTTTT MOQGAD      TELAPSE        5.15 TCPU        5.05
 TTTTTTTTTTTTTTTTTTTTTTTTTTTTTT SHELLXN     TELAPSE       10.07 TCPU        9.94
 TTTTTTTTTTTTTTTTTTTTTTTTTTTTTT MONMO3      TELAPSE       10.71 TCPU       10.58
 NUMERICALLY INTEGRATED DENSITY     60.0000098975
 TTTTTTTTTTTTTTTTTTTTTTTTTTTTTT NUMDFT      TELAPSE       11.08 TCPU       10.95
 CYC   0 ETOT(AU) -4.578600967023E+02 DETOT -4.58E+02 tst  0.00E+00 PX  1.00E+00
 TTTTTTTTTTTTTTTTTTTTTTTTTTTTTT DIIS        TELAPSE       11.08 TCPU       10.95
 TTTTTTTTTTTTTTTTTTTTTTTTTTTTTT FDIK        TELAPSE       11.35 TCPU       11.19
 INSULATING STATE
 TOP OF VALENCE BANDS -    BAND     30; K    9; EIG -4.1566303E-01 AU
 TOP OF VALENCE BANDS -    BAND     30; K    1; EIG -4.1678825E-01 AU
 BOTTOM OF VIRTUAL BANDS - BAND     31; K    1; EIG -9.4402350E-02 AU
 INDIRECT ENERGY BAND GAP:   8.7420 eV
 TTTTTTTTTTTTTTTTTTTTTTTTTTTTTT PDIG        TELAPSE       11.35 TCPU       11.19
 CHARGE NORMALIZATION FACTOR   1.00000000
 TOTAL ATOMIC CHARGES:
   9.0585763   9.0585763   9.0740226   9.0740226   9.0815389   9.0815389
   0.4575082   0.4575082   0.4705611   0.4705611   0.4690830   0.4690830
   0.4598442   0.4598442   0.4689375   0.4689375   0.4599283   0.4599283
 TTTTTTTTTTTTTTTTTTTTTTTTTTTTTT MOQGAD      TELAPSE       11.36 TCPU       11.19
 TTTTTTTTTTTTTTTTTTTTTTTTTTTTTT SHELLXN     TELAPSE       16.36 TCPU       16.20
 TTTTTTTTTTTTTTTTTTTTTTTTTTTTTT MONMO3      TELAPSE       17.00 TCPU       16.83
 NUMERICALLY INTEGRATED DENSITY     60.0000061304
 TTTTTTTTTTTTTTTTTTTTTTTTTTTTTT NUMDFT      TELAPSE       17.89 TCPU       17.72
 CYC   1 ETOT(AU) -4.575902945173E+02 DETOT  2.70E-01 tst  0.00E+00 PX  1.00E+00
 TTTTTTTTTTTTTTTTTTTTTTTTTTTTTT DIIS        TELAPSE       17.90 TCPU       17.73
 DIIS TEST: 0.66528E+00 AT SCF   CYCLE   1 - MIX   30 %
 TTTTTTTTTTTTTTTTTTTTTTTTTTTTTT FDIK        TELAPSE       17.93 TCPU       17.76
 INSULATING STATE
 TOP OF VALENCE BANDS -    BAND     30; K    3; EIG -3.1617003E-01 AU
 TOP OF VALENCE BANDS -    BAND     30; K    1; EIG -3.1618492E-01 AU
 BOTTOM OF VIRTUAL BANDS - BAND     31; K    1; EIG -3.4257734E-02 AU
 INDIRECT ENERGY BAND GAP:   7.6712 eV
 TTTTTTTTTTTTTTTTTTTTTTTTTTTTTT PDIG        TELAPSE       17.93 TCPU       17.76
 CHARGE NORMALIZATION FACTOR   1.00000000
 TOTAL ATOMIC CHARGES:
   8.8372459   8.8372459   8.8471144   8.8471144   8.8479083   8.8479083
   0.5663649   0.5663649   0.5877582   0.5877582   0.5773259   0.5773259
   0.5729309   0.5729309   0.5849154   0.5849154   0.5784362   0.5784362
 TTTTTTTTTTTTTTTTTTTTTTTTTTTTTT MOQGAD      TELAPSE       17.93 TCPU       17.76
 TTTTTTTTTTTTTTTTTTTTTTTTTTTTTT SHELLXN     TELAPSE       22.93 TCPU       22.76
 TTTTTTTTTTTTTTTTTTTTTTTTTTTTTT MONMO3      TELAPSE       23.58 TCPU       23.40
 NUMERICALLY INTEGRATED DENSITY     60.0000082622
 TTTTTTTTTTTTTTTTTTTTTTTTTTTTTT NUMDFT      TELAPSE       24.44 TCPU       24.26
 CYC   2 ETOT(AU) -4.577241937355E+02 DETOT -1.34E-01 tst  2.90E-03 PX  1.30E-01
 TTTTTTTTTTTTTTTTTTTTTTTTTTTTTT DIIS        TELAPSE       24.46 TCPU       24.29
 DIIS TEST: 0.14830E+00 AT SCF   CYCLE   2 - DIIS ACTIVE - HISTORY:     2 CYCLES
 TTTTTTTTTTTTTTTTTTTTTTTTTTTTTT FDIK        TELAPSE       24.49 TCPU       24.29
 INSULATING STATE
 TOP OF VALENCE BANDS -    BAND     30; K    3; EIG -3.6471678E-01 AU
 TOP OF VALENCE BANDS -    BAND     30; K    1; EIG -3.6474457E-01 AU
 BOTTOM OF VIRTUAL BANDS - BAND     31; K    1; EIG -3.7590205E-02 AU
 INDIRECT ENERGY BAND GAP:   8.9016 eV
 TTTTTTTTTTTTTTTTTTTTTTTTTTTTTT PDIG        TELAPSE       24.50 TCPU       24.29
 CHARGE NORMALIZATION FACTOR   1.00000000
 TOTAL ATOMIC CHARGES:
   8.9123375   8.9123375   8.9253218   8.9253218   8.9254309   8.9254309
   0.5303568   0.5303568   0.5476462   0.5476462   0.5373433   0.5373433
   0.5368108   0.5368108   0.5442050   0.5442050   0.5405478   0.5405478
 TTTTTTTTTTTTTTTTTTTTTTTTTTTTTT MOQGAD      TELAPSE       24.50 TCPU       24.30
 TTTTTTTTTTTTTTTTTTTTTTTTTTTTTT SHELLXN     TELAPSE       29.51 TCPU       29.30
 TTTTTTTTTTTTTTTTTTTTTTTTTTTTTT MONMO3      TELAPSE       30.14 TCPU       29.93
 NUMERICALLY INTEGRATED DENSITY     60.0000074887
 TTTTTTTTTTTTTTTTTTTTTTTTTTTTTT NUMDFT      TELAPSE       31.00 TCPU       30.79
 CYC   3 ETOT(AU) -4.577638406488E+02 DETOT -3.96E-02 tst  2.79E-04 PX  4.75E-02
 TTTTTTTTTTTTTTTTTTTTTTTTTTTTTT DIIS        TELAPSE       31.01 TCPU       30.80
 DIIS TEST: 0.59035E-03 AT SCF   CYCLE   3 - DIIS ACTIVE - HISTORY:     3 CYCLES
 TTTTTTTTTTTTTTTTTTTTTTTTTTTTTT FDIK        TELAPSE       31.03 TCPU       30.81
 INSULATING STATE
 TOP OF VALENCE BANDS -    BAND     30; K    3; EIG -3.6186034E-01 AU
 TOP OF VALENCE BANDS -    BAND     30; K    1; EIG -3.6187972E-01 AU
 BOTTOM OF VIRTUAL BANDS - BAND     31; K    1; EIG -3.4755139E-02 AU
 INDIRECT ENERGY BAND GAP:   8.9010 eV
 TTTTTTTTTTTTTTTTTTTTTTTTTTTTTT PDIG        TELAPSE       31.04 TCPU       30.81
 CHARGE NORMALIZATION FACTOR   1.00000000
 TOTAL ATOMIC CHARGES:
   8.9099520   8.9099520   8.9212188   8.9212188   8.9216945   8.9216945
   0.5319814   0.5319814   0.5488316   0.5488316   0.5388774   0.5388774
   0.5390472   0.5390472   0.5458194   0.5458194   0.5425776   0.5425776
 TTTTTTTTTTTTTTTTTTTTTTTTTTTTTT MOQGAD      TELAPSE       31.04 TCPU       30.81
 TTTTTTTTTTTTTTTTTTTTTTTTTTTTTT SHELLXN     TELAPSE       36.05 TCPU       35.82
 TTTTTTTTTTTTTTTTTTTTTTTTTTTTTT MONMO3      TELAPSE       36.67 TCPU       36.44
 NUMERICALLY INTEGRATED DENSITY     60.0000075179
 TTTTTTTTTTTTTTTTTTTTTTTTTTTTTT NUMDFT      TELAPSE       37.53 TCPU       37.30
 CYC   4 ETOT(AU) -4.577639650801E+02 DETOT -1.24E-04 tst  1.26E-06 PX  2.13E-03
 TTTTTTTTTTTTTTTTTTTTTTTTTTTTTT DIIS        TELAPSE       37.54 TCPU       37.31
 DIIS TEST: 0.15539E-04 AT SCF   CYCLE   4 - DIIS ACTIVE - HISTORY:     4 CYCLES
 TTTTTTTTTTTTTTTTTTTTTTTTTTTTTT FDIK        TELAPSE       37.58 TCPU       37.34
 INSULATING STATE
 TOP OF VALENCE BANDS -    BAND     30; K    3; EIG -3.6199676E-01 AU
 TOP OF VALENCE BANDS -    BAND     30; K    1; EIG -3.6202165E-01 AU
 BOTTOM OF VIRTUAL BANDS - BAND     31; K    1; EIG -3.4454347E-02 AU
 INDIRECT ENERGY BAND GAP:   8.9129 eV
 TTTTTTTTTTTTTTTTTTTTTTTTTTTTTT PDIG        TELAPSE       37.58 TCPU       37.35
 CHARGE NORMALIZATION FACTOR   1.00000000
 TOTAL ATOMIC CHARGES:
   8.9086726   8.9086726   8.9219828   8.9219828   8.9218383   8.9218383
   0.5321734   0.5321734   0.5494235   0.5494235   0.5388017   0.5388017
   0.5387723   0.5387723   0.5457774   0.5457774   0.5425581   0.5425581
 TTTTTTTTTTTTTTTTTTTTTTTTTTTTTT MOQGAD      TELAPSE       37.58 TCPU       37.35
 TTTTTTTTTTTTTTTTTTTTTTTTTTTTTT SHELLXN     TELAPSE       42.59 TCPU       42.35
 TTTTTTTTTTTTTTTTTTTTTTTTTTTTTT MONMO3      TELAPSE       43.22 TCPU       42.98
 NUMERICALLY INTEGRATED DENSITY     60.0000075216
 TTTTTTTTTTTTTTTTTTTTTTTTTTTTTT NUMDFT      TELAPSE       44.08 TCPU       43.84
 CYC   5 ETOT(AU) -4.577639674227E+02 DETOT -2.34E-06 tst  6.20E-08 PX  7.65E-04
 TTTTTTTTTTTTTTTTTTTTTTTTTTTTTT DIIS        TELAPSE       44.09 TCPU       43.85
 DIIS TEST: 0.40266E-05 AT SCF   CYCLE   5 - DIIS ACTIVE - HISTORY:     5 CYCLES
 TTTTTTTTTTTTTTTTTTTTTTTTTTTTTT FDIK        TELAPSE       44.12 TCPU       43.87
 INSULATING STATE
 TOP OF VALENCE BANDS -    BAND     30; K    3; EIG -3.6185504E-01 AU
 TOP OF VALENCE BANDS -    BAND     30; K    1; EIG -3.6187603E-01 AU
 BOTTOM OF VIRTUAL BANDS - BAND     31; K    1; EIG -3.4431530E-02 AU
 INDIRECT ENERGY BAND GAP:   8.9097 eV
 TTTTTTTTTTTTTTTTTTTTTTTTTTTTTT PDIG        TELAPSE       44.12 TCPU       43.88
 CHARGE NORMALIZATION FACTOR   1.00000000
 TOTAL ATOMIC CHARGES:
   8.9093952   8.9093952   8.9213600   8.9213600   8.9216292   8.9216292
   0.5320344   0.5320344   0.5491995   0.5491995   0.5388984   0.5388984
   0.5389484   0.5389484   0.5458832   0.5458832   0.5426518   0.5426518
 TTTTTTTTTTTTTTTTTTTTTTTTTTTTTT MOQGAD      TELAPSE       44.12 TCPU       43.88
 TTTTTTTTTTTTTTTTTTTTTTTTTTTTTT SHELLXN     TELAPSE       49.13 TCPU       48.89
 TTTTTTTTTTTTTTTTTTTTTTTTTTTTTT MONMO3      TELAPSE       49.76 TCPU       49.52
 NUMERICALLY INTEGRATED DENSITY     60.0000075210
 TTTTTTTTTTTTTTTTTTTTTTTTTTTTTT NUMDFT      TELAPSE       50.62 TCPU       50.38
 CYC   6 ETOT(AU) -4.577639682363E+02 DETOT -8.14E-07 tst  1.20E-08 PX  3.56E-04
 TTTTTTTTTTTTTTTTTTTTTTTTTTTTTT DIIS        TELAPSE       50.63 TCPU       50.39
 DIIS TEST: 0.40422E-06 AT SCF   CYCLE   6 - DIIS ACTIVE - HISTORY:     6 CYCLES
 TTTTTTTTTTTTTTTTTTTTTTTTTTTTTT FDIK        TELAPSE       50.66 TCPU       50.41
 INSULATING STATE
 TOP OF VALENCE BANDS -    BAND     30; K    3; EIG -3.6182904E-01 AU
 TOP OF VALENCE BANDS -    BAND     30; K    1; EIG -3.6185094E-01 AU
 BOTTOM OF VIRTUAL BANDS - BAND     31; K    1; EIG -3.4418344E-02 AU
 INDIRECT ENERGY BAND GAP:   8.9093 eV
 TTTTTTTTTTTTTTTTTTTTTTTTTTTTTT PDIG        TELAPSE       50.66 TCPU       50.41
 CHARGE NORMALIZATION FACTOR   1.00000000
 TOTAL ATOMIC CHARGES:
   8.9091862   8.9091862   8.9214698   8.9214698   8.9216109   8.9216109
   0.5321064   0.5321064   0.5492515   0.5492515   0.5388930   0.5388930
   0.5389438   0.5389438   0.5458744   0.5458744   0.5426640   0.5426640
 TTTTTTTTTTTTTTTTTTTTTTTTTTTTTT MOQGAD      TELAPSE       50.67 TCPU       50.42
 TTTTTTTTTTTTTTTTTTTTTTTTTTTTTT SHELLXN     TELAPSE       55.67 TCPU       55.42
 +++ ENERGIES IN A.U. +++
 ::: EXT EL-POLE                                  -4.7825455594750E+02
 ::: EXT EL-SPHEROPOLE                             5.9077018722321E+00
 ::: BIELET ZONE E-E                               5.9523003697322E+02
 ::: TOTAL E-E                                     1.2288318289795E+02
 ::: TOTAL E-N + N-E                              -9.0918461487215E+02
 ::: TOTAL N-N                                    -9.2009086534077E+01
 ::: KINETIC ENERGY                                4.5486173335675E+02
 ::: PSEUDO TOTAL   ENERGY                        -4.2344878515152E+02
 ::: VIRIAL COEFFICIENT                            1.0357651964121E+00
 TTTTTTTTTTTTTTTTTTTTTTTTTTTTTT MONMO3      TELAPSE       56.31 TCPU       56.05
 NUMERICALLY INTEGRATED DENSITY     60.0000075221
 TTTTTTTTTTTTTTTTTTTTTTTTTTTTTT NUMDFT      TELAPSE       57.17 TCPU       56.92
 CYC   7 ETOT(AU) -4.577639683092E+02 DETOT -7.29E-08 tst  1.14E-09 PX  3.56E-04

 == SCF ENDED - CONVERGENCE ON ENERGY      E(AU) -4.5776396830920E+02 CYCLES   7


 ENERGY EXPRESSION=HARTREE+FOCK EXCH*0.00000+(HSE-3c     EXCH)*1.00000+PBEh-3c    CORR


 TOTAL ENERGY(DFT)(AU)(  7) -4.5776396830920E+02 DE-7.3E-08 tester 1.1E-09
 TTTTTTTTTTTTTTTTTTTTTTTTTTTTTT EDFT        TELAPSE       57.17 TCPU       56.92
 
 INFORMATION **** DFTD3 ENERGY **** CALCULATE DFTD3 ENERGY

           DFT-D V3(BJ)
 DF                                         hse3c     
 parameters
 s6       :    1.0000
 s8       :    0.0000
 a1       :    0.4411
 a2       :    4.5182
 k1 k3    :   16.0000   -4.0000
 Cutoff   :   50.2022
 CN-Cutoff:   21.1671
 
 Edisp /kcal,au:   -11.7726 -0.01876086

 E6    /kcal :   -12.6730
 E8    /kcal :     0.0000
 E6(ABC) "   :   0.900356
 
 INFORMATION **** DFTD3 ENERGY **** NORMAL TERMINATION OF DFTD3 MODULE

 GCP ENERGY CALCULATION
  level           hse3c               basis:hse3c
  Nbf            114
  Atoms           18

  Parameters: 
  sigma     1.0000
  eta       1.4086
  alpha     0.2908
  beta      1.9526

  dmp_scal      4.0000
  dmp_exp       6.0000
 cutoffs: 
   distance [bohr] 60.0
   noise    [a.u.] 2.2E-16
 SR-damping   T
 ** gCP correction **
  Egcp:        0.0748434901 / (a.u.) ||      46.9650 / (kcal/mol)
 INFORMATION **** GCP **** NORMAL TERMINATION OF GCP MODULE

 *******************************************************************************

 DFT-D3-GCP DISPERSION AND COUNTERPOISE CORRECTION

 D3 DISPERSION ENERGY (AU)      -1.8760863607824E-02
 GCP ENERGY (AU)                 7.4843490060866E-02
 TOTAL ENERGY + DISP + GCP (AU) -4.5770788568275E+02

 *******************************************************************************

 EIGENVECTORS IN FORTRAN UNIT 10
 TTTTTTTTTTTTTTTTTTTTTTTTTTTTTT END         TELAPSE       57.84 TCPU       57.57
 EEEEEEEEEE TERMINATION  DATE 25 03 2019 TIME 17:49:04.5
NODE    0 CPU TIME =        57.571
NODE    1 CPU TIME =        57.536
NODE    2 CPU TIME =        57.582
NODE    3 CPU TIME =        57.574
NODE    4 CPU TIME =        57.467
NODE    5 CPU TIME =        57.492
NODE    6 CPU TIME =        57.487
NODE    7 CPU TIME =        57.315
    TOTAL CPU TIME =       460.024
