 PROCESS            6  OF            8  WORKING
 PROCESS            3  OF            8  WORKING
 PROCESS            0  OF            8  WORKING
 PROCESS            2  OF            8  WORKING
 PROCESS            1  OF            8  WORKING
 PROCESS            5  OF            8  WORKING
 PROCESS            4  OF            8  WORKING
 PROCESS            7  OF            8  WORKING

         
 *******************************************************************************
 *                                                                             *
 *                               CRYSTAL17                                     *
 *                      public : 1.0.1 - Feb 1st, 2017                         *
 *                       HTTP://WWW.CRYSTAL.UNITO.IT                           *
 *                                                                             *
 *                              MAIN AUTHORS                                   *
 *                                                                             *
 *  R. DOVESI(1,11), V.R. SAUNDERS(2), C. ROETTI(1,11), R. ORLANDO(1,11),      *
 *  C.M. ZICOVICH-WILSON(1,3), F. PASCALE(4), B. CIVALLERI(1,11),              *
 *  K. DOLL(5), N.M. HARRISON(2,6), I.J. BUSH(7), Ph. D'ARCO(8),               *
 *  M. LLUNELL(9), M. CAUSA'(10), Y. NOEL(8), L. MASCHIO(1,11), A. ERBA(1,11)  *
 *  M. RE'RAT(14), S. CASASSA(1,11)                                            *
 *                                                                             *
 *        CONTRIBUTIONS TO THE CODE HAVE ALSO BEEN GIVEN BY                    *
 *                                                                             *
 *  M. FERRABONE(1,11), M. DE LA PIERRE(1,11), M. FERRERO(1,11),               *
 *  J. BAIMA(1,11), E. ALBANESE(1,11), M.F. PEINTINGER(12), R. BAST(13),       *
 *  B. KIRTMAN(15), V. LACIVITA(1,11), R. DEMICHELIS(1,16)                     *
 *  G. BRANDEBURG(17), S. SALUSTRO(1,11), G. SANSONE(1,11)                     *
 *  M.T. RUGGIERO(18)                                                          *
 *                                                                             *
 * (1) THEORETICAL CHEMISTRY GROUP - UNIVERSITA' DI TORINO - TORINO (ITALY)    *

 * (2) COMPUTATIONAL SCIENCE & ENGINEERING DEPARTMENT - STFC DARESBURY (UK)    *
 * (3) UNIVERSIDAD AUTONOMA DEL ESTADO DE MORELOS - CUERNAVACA (MEXICO)        *
 * (4) UNIVERSITE' DE LORRAINE - NANCY (FRANCE)                                *
 * (5) UNIVERSITAET STUTTGART- STUTTGART (GERMANY)                             *
 * (6) IMPERIAL COLLEGE - LONDON (UK)                                          *
 * (7) OXFORD E-RESEARCH CENTRE - OXFORD (UK)                                  *
 * (8) UPMC - SORBONNE UNIVERSITES - PARIS (FRANCE)                            *
 * (9) UNIVERSIDAD DE BARCELONA - BARCELONA (SPAIN)                            *
 *(10) UNIVERSITA' DI NAPOLI "FEDERICO II" - NAPOLI (ITALY)                    *
 *(11) NIS - NANOSTRUCTURED INTERFACES AND SURFACES - TORINO (ITALY)           *
 *(12) MPI FUER CHEMISCHE ENERGIEKONVERSION - MUELHEIM AN DER RUHR (GERMANY)   *
 *(13) UNIVERSITY OF TROMSO - TROMSO (NORWAY)                                  *
 *(14) UNIVERSITE' DE PAU ET DES PAYS DE L'ADOUR - PAU (FRANCE)                *
 *(15) UNIVERSITY OF CALIFORNIA SANTA BARBARA - SANTA BARBARA (USA)            *
 *(16) CURTIN UNIVERSITY - PERTH (AUSTRALIA)                                   *
 *(17) UNIVERSITY COLLEGE LONDON - LONDON (UK)                                 *
 *(18) CAMBRIDGE UNIVERSITY - CAMBRIDGE (UK)                                   *
 *                                                                             *
 *******************************************************************************
 EEEEEEEEEE STARTING  DATE 25 03 2019 TIME 17:52:41.4
 !drive by JGB                                                                   

 CRYSTAL CALCULATION
 (INPUT ACCORDING TO THE INTERNATIONAL TABLES FOR X-RAY CRYSTALLOGRAPHY)
 CRYSTAL FAMILY                       :  ORTHORHOMBIC
 CRYSTAL CLASS  (GROTH - 1921)        :  ORTHORHOMBIC PYRAMIDAL               

 SPACE GROUP (NONCENTROSYMMETRIC)     :  P N N 2         

 LATTICE PARAMETERS  (ANGSTROMS AND DEGREES) - CONVENTIONAL CELL
        A           B           C        ALPHA        BETA       GAMMA
    11.71434     4.31744     5.16003    90.00000    90.00000    90.00000


 NUMBER OF IRREDUCIBLE ATOMS IN THE CONVENTIONAL CELL:    8

 INPUT COORDINATES

 ATOM AT. N.              COORDINATES
   1   8     5.000000000000E-01  5.000000000000E-01  1.807472549457E-01
   2   8     8.567490614385E-01  2.800276587563E-01  3.478281509041E-01
   3   8     1.456583440834E-01  2.133102687938E-01  4.288220175508E-02
   4   1     4.533649039931E-01  3.694827188410E-01  6.579648172852E-02
   5   1     7.786522280730E-01  2.874778265669E-01  4.206795666128E-01
   6   1     8.655112760274E-01  4.663326012858E-01  2.393993998303E-01
   7   1     1.430549488262E-01  2.825241441564E-02  1.564317735382E-01
   8   1     9.056489092792E-02  1.701203951030E-01  9.032637981579E-01

 *******************************************************************************

 << INFORMATION >>: FROM NOW ON, ALL COORDINATES REFER TO THE PRIMITIVE CELL

 *******************************************************************************

 LATTICE PARAMETERS  (ANGSTROMS AND DEGREES) - PRIMITIVE CELL
       A          B          C        ALPHA      BETA     GAMMA        VOLUME
   11.71434    4.31744    5.16003    90.00000  90.00000  90.00000    260.973293

 COORDINATES OF THE EQUIVALENT ATOMS (FRACTIONAL UNITS)

 N. ATOM EQUIV AT. N.          X                  Y                  Z

   1   1   1    8 O    -5.00000000000E-01 -5.00000000000E-01  1.80747254946E-01
   2   1   2    8 O     0.00000000000E+00  0.00000000000E+00 -3.19252745054E-01

   3   2   1    8 O    -1.43250938561E-01  2.80027658756E-01  3.47828150904E-01
   4   2   2    8 O     1.43250938561E-01 -2.80027658756E-01  3.47828150904E-01
   5   2   3    8 O    -3.56749061439E-01 -2.19972341244E-01 -1.52171849096E-01
   6   2   4    8 O     3.56749061439E-01  2.19972341244E-01 -1.52171849096E-01

   7   3   1    8 O     1.45658344083E-01  2.13310268794E-01  4.28822017551E-02
   8   3   2    8 O    -1.45658344083E-01 -2.13310268794E-01  4.28822017551E-02
   9   3   3    8 O     3.54341655917E-01 -2.86689731206E-01 -4.57117798245E-01
  10   3   4    8 O    -3.54341655917E-01  2.86689731206E-01 -4.57117798245E-01

  11   4   1    1 H     4.53364903993E-01  3.69482718841E-01  6.57964817285E-02
  12   4   2    1 H    -4.53364903993E-01 -3.69482718841E-01  6.57964817285E-02
  13   4   3    1 H     4.66350960069E-02 -1.30517281159E-01 -4.34203518271E-01
  14   4   4    1 H    -4.66350960069E-02  1.30517281159E-01 -4.34203518271E-01

  15   5   1    1 H    -2.21347771927E-01  2.87477826567E-01  4.20679566613E-01
  16   5   2    1 H     2.21347771927E-01 -2.87477826567E-01  4.20679566613E-01
  17   5   3    1 H    -2.78652228073E-01 -2.12522173433E-01 -7.93204333872E-02
  18   5   4    1 H     2.78652228073E-01  2.12522173433E-01 -7.93204333872E-02

  19   6   1    1 H    -1.34488723973E-01  4.66332601286E-01  2.39399399830E-01
  20   6   2    1 H     1.34488723973E-01 -4.66332601286E-01  2.39399399830E-01
  21   6   3    1 H    -3.65511276027E-01 -3.36673987142E-02 -2.60600600170E-01
  22   6   4    1 H     3.65511276027E-01  3.36673987142E-02 -2.60600600170E-01

  23   7   1    1 H     1.43054948826E-01  2.82524144156E-02  1.56431773538E-01
  24   7   2    1 H    -1.43054948826E-01 -2.82524144156E-02  1.56431773538E-01
  25   7   3    1 H     3.56945051174E-01 -4.71747585584E-01 -3.43568226462E-01
  26   7   4    1 H    -3.56945051174E-01  4.71747585584E-01 -3.43568226462E-01

  27   8   1    1 H     9.05648909279E-02  1.70120395103E-01 -9.67362018421E-02
  28   8   2    1 H    -9.05648909279E-02 -1.70120395103E-01 -9.67362018421E-02
  29   8   3    1 H     4.09435109072E-01 -3.29879604897E-01  4.03263798158E-01
  30   8   4    1 H    -4.09435109072E-01  3.29879604897E-01  4.03263798158E-01

 NUMBER OF SYMMETRY OPERATORS         :    4
 *******************************************************************************
 * GEOMETRY EDITING - INPUT COORDINATES ARE GIVEN IN ANGSTROM         
 *******************************************************************************

 GEOMETRY NOW FULLY CONSISTENT WITH THE GROUP

 GCALCO - MAX INDICES DIRECT LATTICE VECTOR     8    21    18
 NO.OF VECTORS CREATED 6999 STARS 1069 RMAX   143.25600 BOHR

 GEOMETRY FOR WAVE FUNCTION - DIMENSIONALITY OF THE SYSTEM    3
 (NON PERIODIC DIRECTION: LATTICE PARAMETER FORMALLY SET TO 500)
 *******************************************************************************
 LATTICE PARAMETERS (ANGSTROMS AND DEGREES) - BOHR = 0.5291772083 ANGSTROM
 PRIMITIVE CELL - CENTRING CODE 1/0 VOLUME=   260.973293 - DENSITY  1.146 g/cm^3
         A              B              C           ALPHA      BETA       GAMMA 
    11.71433993     4.31743682     5.16003031    90.000000  90.000000  90.000000
 *******************************************************************************
 ATOMS IN THE ASYMMETRIC UNIT    8 - ATOMS IN THE UNIT CELL:   30
     ATOM                 X/A                 Y/B                 Z/C    
 *******************************************************************************
      1 T   8 O    -5.000000000000E-01 -5.000000000000E-01  1.807472549457E-01
      2 F   8 O     2.220446049250E-16  0.000000000000E+00 -3.192527450543E-01
      3 T   8 O    -1.432509385615E-01  2.800276587563E-01  3.478281509041E-01
      4 F   8 O     1.432509385615E-01 -2.800276587563E-01  3.478281509041E-01
      5 F   8 O    -3.567490614385E-01 -2.199723412437E-01 -1.521718490959E-01
      6 F   8 O     3.567490614385E-01  2.199723412437E-01 -1.521718490959E-01
      7 T   8 O     1.456583440834E-01  2.133102687938E-01  4.288220175508E-02
      8 F   8 O    -1.456583440834E-01 -2.133102687938E-01  4.288220175508E-02
      9 F   8 O     3.543416559166E-01 -2.866897312062E-01 -4.571177982449E-01
     10 F   8 O    -3.543416559166E-01  2.866897312062E-01 -4.571177982449E-01
     11 T   1 H     4.533649039931E-01  3.694827188410E-01  6.579648172852E-02
     12 F   1 H    -4.533649039931E-01 -3.694827188410E-01  6.579648172852E-02
     13 F   1 H     4.663509600690E-02 -1.305172811590E-01 -4.342035182715E-01
     14 F   1 H    -4.663509600690E-02  1.305172811590E-01 -4.342035182715E-01
     15 T   1 H    -2.213477719270E-01  2.874778265669E-01  4.206795666128E-01
     16 F   1 H     2.213477719270E-01 -2.874778265669E-01  4.206795666128E-01
     17 F   1 H    -2.786522280730E-01 -2.125221734331E-01 -7.932043338720E-02
     18 F   1 H     2.786522280730E-01  2.125221734331E-01 -7.932043338720E-02
     19 T   1 H    -1.344887239726E-01  4.663326012858E-01  2.393993998303E-01
     20 F   1 H     1.344887239726E-01 -4.663326012858E-01  2.393993998303E-01
     21 F   1 H    -3.655112760274E-01 -3.366739871420E-02 -2.606006001697E-01
     22 F   1 H     3.655112760274E-01  3.366739871420E-02 -2.606006001697E-01
     23 T   1 H     1.430549488262E-01  2.825241441564E-02  1.564317735382E-01
     24 F   1 H    -1.430549488262E-01 -2.825241441564E-02  1.564317735382E-01
     25 F   1 H     3.569450511738E-01 -4.717475855844E-01 -3.435682264618E-01
     26 F   1 H    -3.569450511738E-01  4.717475855844E-01 -3.435682264618E-01
     27 T   1 H     9.056489092792E-02  1.701203951030E-01 -9.673620184214E-02
     28 F   1 H    -9.056489092792E-02 -1.701203951030E-01 -9.673620184214E-02
     29 F   1 H     4.094351090721E-01 -3.298796048970E-01  4.032637981579E-01
     30 F   1 H    -4.094351090721E-01  3.298796048970E-01  4.032637981579E-01

 T = ATOM BELONGING TO THE ASYMMETRIC UNIT

 ****    4 SYMMOPS - TRANSLATORS IN FRACTIONAL UNITS
 **** MATRICES AND TRANSLATORS IN THE CRYSTALLOGRAPHIC REFERENCE FRAME
   V INV                    ROTATION MATRICES                   TRANSLATORS
   1   1  1.00  0.00  0.00  0.00  1.00  0.00  0.00  0.00  1.00  0.00  0.00  0.00
   2   2 -1.00  0.00  0.00  0.00 -1.00  0.00  0.00  0.00  1.00  0.00  0.00  0.00
   3   3 -1.00  0.00  0.00  0.00  1.00  0.00  0.00  0.00  1.00  0.50  0.50  0.50
   4   4  1.00  0.00  0.00  0.00 -1.00  0.00  0.00  0.00  1.00  0.50  0.50  0.50

 DIRECT LATTICE VECTORS CARTESIAN COMPONENTS (ANGSTROM)
          X                    Y                    Z
   0.117143399300E+02   0.000000000000E+00   0.000000000000E+00
   0.000000000000E+00   0.431743682000E+01   0.000000000000E+00
   0.000000000000E+00   0.000000000000E+00   0.516003031000E+01


 CARTESIAN COORDINATES - PRIMITIVE CELL
 *******************************************************************************
 *      ATOM          X(ANGSTROM)         Y(ANGSTROM)         Z(ANGSTROM)
 *******************************************************************************
    1     8 O     5.857169965000E+00  2.158718410000E+00  9.326613139691E-01
    2     8 O     2.601105981714E-15  0.000000000000E+00 -1.647353841031E+00
    3     8 O    -1.678090189601E+00  1.209001724533E+00  1.794803801336E+00
    4     8 O     1.678090189601E+00 -1.209001724533E+00  1.794803801336E+00
    5     8 O    -4.179079775399E+00 -9.497166854672E-01 -7.852113536636E-01
    6     8 O     4.179079775399E+00  9.497166854672E-01 -7.852113536636E-01
    7     8 O     1.706291356234E+00  9.209536085744E-01  2.212734608157E-01
    8     8 O    -1.706291356234E+00 -9.209536085744E-01  2.212734608157E-01
    9     8 O     4.150878608766E+00 -1.237764801426E+00 -2.358741694184E+00
   10     8 O    -4.150878608766E+00  1.237764801426E+00 -2.358741694184E+00
   11     1 H     5.310870597707E+00  1.595218294678E+00  3.395118400105E-01
   12     1 H    -5.310870597707E+00 -1.595218294678E+00  3.395118400105E-01
   13     1 H     5.462993672930E-01 -5.635001153222E-01 -2.240503314989E+00
   14     1 H    -5.462993672930E-01  5.635001153222E-01 -2.240503314989E+00
   15     1 H    -2.592943043101E+00  1.241167353354E+00  2.170719314520E+00
   16     1 H     2.592943043101E+00 -1.241167353354E+00  2.170719314520E+00
   17     1 H    -3.264226921899E+00 -9.175510566465E-01 -4.092958404803E-01
   18     1 H     3.264226921899E+00  9.175510566465E-01 -4.092958404803E-01
   19     1 H    -1.575446629367E+00  2.013361543158E+00  1.235308159320E+00
   20     1 H     1.575446629367E+00 -2.013361543158E+00  1.235308159320E+00
   21     1 H    -4.281723335633E+00 -1.453568668423E-01 -1.344706995680E+00
   22     1 H     4.281723335633E+00  1.453568668423E-01 -1.344706995680E+00
   23     1 H     1.675794299219E+00  1.219780142520E-01  8.071926929042E-01
   24     1 H    -1.675794299219E+00 -1.219780142520E-01  8.071926929042E-01
   25     1 H     4.181375665781E+00 -2.036740395748E+00 -1.772822462096E+00
   26     1 H    -4.181375665781E+00  2.036740395748E+00 -1.772822462096E+00
   27     1 H     1.060907918053E+00  7.344840576506E-01 -4.991617335797E-01
   28     1 H    -1.060907918053E+00 -7.344840576506E-01 -4.991617335797E-01
   29     1 H     4.796262046947E+00 -1.424234352349E+00  2.080853421420E+00
   30     1 H    -4.796262046947E+00  1.424234352349E+00  2.080853421420E+00

 *******************************************************************************
 STARTING BASIS SET HANDLING 
 *******************************************************************************

 Loading internal basis set: DEF2-MSVP           

 Please cite in your publication:
 Fully Optimized Contracted Gaussian Basis Sets for Atoms Li to Kr. A. Schäfer, 
 H. Horn and R. Ahlrichs; J. Chem. Phys. 97, 2571 (1992).                       
                                                                                
                    
 S. Grimme, J. G. Brandenburg, C. Bannwarth, and A. Hansen, J. Chem. Phys., 143,
  054107 (2015).                                                                
                                                                                
                    

 *******************************************************************************
 LOCAL ATOMIC FUNCTIONS BASIS SET
 *******************************************************************************
   ATOM   X(AU)   Y(AU)   Z(AU)  N. TYPE  EXPONENT  S COEF   P COEF   D/F/G COEF
 *******************************************************************************
   1 O   11.068   4.079   1.762
                                  1 S  
                                         6.773E+03 1.727E-03 0.000E+00 0.000E+00
                                         1.017E+03 1.325E-02 0.000E+00 0.000E+00
                                         2.313E+02 6.603E-02 0.000E+00 0.000E+00
                                         6.501E+01 2.353E-01 0.000E+00 0.000E+00
                                         2.050E+01 5.498E-01 0.000E+00 0.000E+00
                                  2 S  
                                         6.716E+00 1.000E+00 0.000E+00 0.000E+00
                                  3 S  
                                         1.147E+00 1.000E+00 0.000E+00 0.000E+00
                                  4 S  
                                         3.342E-01 1.000E+00 0.000E+00 0.000E+00
                           5-     7 P  
                                         1.769E+01 0.000E+00 4.359E-02 0.000E+00
                                         3.854E+00 0.000E+00 2.318E-01 0.000E+00
                                         1.047E+00 0.000E+00 5.146E-01 0.000E+00
                           8-    10 P  
                                         2.759E-01 0.000E+00 1.000E+00 0.000E+00
                          11-    15 D  
                                         8.000E-01 0.000E+00 0.000E+00 1.000E+00
   2 O    0.000   0.000  -3.113
   3 O   -3.171   2.285   3.392
   4 O    3.171  -2.285   3.392
   5 O   -7.897  -1.795  -1.484
   6 O    7.897   1.795  -1.484
   7 O    3.224   1.740   0.418
   8 O   -3.224  -1.740   0.418
   9 O    7.844  -2.339  -4.457
  10 O   -7.844   2.339  -4.457
  11 H   10.036   3.015   0.642
                                151 S  
                                         1.874E+01 1.968E-02 0.000E+00 0.000E+00
                                         2.826E+00 1.380E-01 0.000E+00 0.000E+00
                                         6.401E-01 4.783E-01 0.000E+00 0.000E+00
                                152 S  
                                         1.756E-01 1.000E+00 0.000E+00 0.000E+00
  12 H  -10.036  -3.015   0.642
  13 H    1.032  -1.065  -4.234
  14 H   -1.032   1.065  -4.234
  15 H   -4.900   2.345   4.102
  16 H    4.900  -2.345   4.102
  17 H   -6.168  -1.734  -0.773
  18 H    6.168   1.734  -0.773
  19 H   -2.977   3.805   2.334
  20 H    2.977  -3.805   2.334
  21 H   -8.091  -0.275  -2.541
  22 H    8.091   0.275  -2.541
  23 H    3.167   0.231   1.525
  24 H   -3.167  -0.231   1.525
  25 H    7.902  -3.849  -3.350
  26 H   -7.902   3.849  -3.350
  27 H    2.005   1.388  -0.943
  28 H   -2.005  -1.388  -0.943
  29 H    9.064  -2.691   3.932
  30 H   -9.064   2.691   3.932

 *******************************************************************************
 FINISHED BASIS SET HANDLING 
 *******************************************************************************

 INFORMATION **** SET_MPP **** PCRYSTAL CALCULATION
 INFORMATION **** READM2 **** NEW DEFAULT: FOCK/KS MATRIX MIXING SET TO 30 %
 INFORMATION **** READM2 **** NEW DEFAULT: FULL DIRECT SCF MODE
 INFORMATION **** READM2 **** NEW DEFAULT: COULOMB BIPOLAR BUFFER SET TO 32 Mb
 INFORMATION **** READM2 **** NEW DEFAULT: EXCHANGE BIPOLAR BUFFER SET TO 32 Mb

 *******************************************************************************
 NEW DEFAULT: DFT INTEGRATION GRID INCREASED TO XLGRID
 NEW DEFAULT: DIIS ACCELERATOR ACTIVE
 USE KEYWORD NODIIS TO TURN IT OFF
 *******************************************************************************

 INFORMATION **** RDDFTP **** HSE-3c calculation
 INFORMATION **** RDDFTP **** HSE screened hybrid functional combined with D3 and gCP

PLEASE CITE:
(1) HSE-3c Reference
 J. G. Brandenburg, E. Caldeweyer, and S. Grimme, 
 Phys. Chem. Chem. Phys. 18, 15519 (2016)
(2) DFT-D3 Reference
 S. Grimme, J. Antony, S. Ehrlich,
 and H. Krieg, J. Chem. Phys. 132, 154104 (2010)
(3) gCP Reference
 H. Kruse and S. Grimme J. Chem. Phys, 136, 154101 (2012)
 J. G. Brandenburg, M. Alessio, B. Civalleri, M. F. Peintinger
 T. Bredow, and S. Grimme, J. Phys. Chem. A, 117, 9282 (2013) 

 WARNING **** RDDFTP **** HSE3c-HJS ACTIVE
 RANGE SEPARATION - OMEGA:   0.110000000000000     
 WARNING **** RDDFTP **** HSE-3c has to be combined with def2-mSVP basis set
 WARNING **** RDDFTP **** Note: Harmonic frequencies are scaled by 0.95
 WARNING **** RDDFTP **** as recommended in original publication
 INFORMATION **** BIPOSIZE **** COULOMB BIPOLAR BUFFER SET TO    60000000
 INFORMATION **** EXCHSIZE **** EXCHANGE BIPOLAR BUFFER SIZE SET TO    40000000
 *******************************************************************************
 N. OF ATOMS PER CELL        30  COULOMB OVERLAP TOL         (T1) 10**   -6
 NUMBER OF SHELLS           110  COULOMB PENETRATION TOL     (T2) 10**   -6
 NUMBER OF AO               190  EXCHANGE OVERLAP TOL        (T3) 10**   -6
 N. OF ELECTRONS PER CELL   100  EXCHANGE PSEUDO OVP (F(G))  (T4) 10**   -6
 CORE ELECTRONS PER CELL     20  EXCHANGE PSEUDO OVP (P(G))  (T5) 10**  -12
 N. OF SYMMETRY OPERATORS     4  POLE ORDER IN MONO ZONE                  4
 *******************************************************************************
 TYPE OF CALCULATION :  RESTRICTED CLOSED SHELL
 KOHN-SHAM HAMILTONIAN

 (EXCHANGE)[CORRELATION] FUNCTIONAL:(HSE-3c)[PBEh-3c]

 RANGE-SEPARATED HYBRID FUNCTIONAL 
 OMEGA (SHORT-RANGE)[LONG-RANGE]:(    0.1100)[    0.0000]

 HYBRID EXCHANGE - PERCENTAGE OF FOCK EXCHANGE    42.0000

 CAPPA:IS1  1;IS2  2;IS3  2; K PTS MONK NET   4; SYMMOPS:K SPACE   8;G SPACE   4

 *******************************************************************************
 MAX NUMBER OF SCF CYCLES      50  CONVERGENCE ON DELTAP        10**-16
 WEIGHT OF F(I) IN F(I+1)      30% CONVERGENCE ON ENERGY        10**- 6
 S(K) EIGENV. THRESHOLD  10*10.**-4
 SHRINK. FACT.(MONKH.)    1  2  2  NUMBER OF K POINTS IN THE IBZ      4
 SHRINKING FACTOR(GILAT NET)    1  NUMBER OF K POINTS(GILAT NET)      4
 *******************************************************************************
 *** K POINTS COORDINATES (OBLIQUE COORDINATES IN UNITS OF IS =  1)
   1-R(  0  0  0)   2-R(  0  1  0)   3-R(  0  0  1)   4-R(  0  1  1)

 DIRECT LATTICE VECTORS COMPON. (A.U.)     RECIP. LATTICE VECTORS COMPON. (A.U.) 
        X            Y            Z              X            Y            Z
   22.1368943    0.0000000    0.0000000      0.2838332    0.0000000    0.0000000
    0.0000000    8.1587732    0.0000000      0.0000000    0.7701140    0.0000000
    0.0000000    0.0000000    9.7510441      0.0000000    0.0000000    0.6443603

 DISK SPACE FOR EIGENVECTORS (FTN 10)      144400 REALS

 SYMMETRY ADAPTION OF THE BLOCH FUNCTIONS ENABLED
 TTTTTTTTTTTTTTTTTTTTTTTTTTTTTT gordsh1     TELAPSE        0.33 TCPU        0.04

 MATRIX SIZE: P(G)  111118, F(G)   19966, P(G) IRR   14729, F(G) IRR    5232
 MAX G-VECTOR INDEX FOR 1- AND 2-ELECTRON INTEGRALS 101

 TTTTTTTTTTTTTTTTTTTTTTTTTTTTTT INPUT       TELAPSE        0.34 TCPU        0.06

 NEIGHBORS OF THE NON-EQUIVALENT ATOMS

 N = NUMBER OF NEIGHBORS AT DISTANCE R
    ATOM  N     R/ANG      R/AU   NEIGHBORS (ATOM LABELS AND CELL INDICES)
   1 O    2     0.9838     1.8591   11 H    0 0 0   12 H    1 1 0
   1 O    2     1.7272     3.2640   29 H    0 1 0   30 H    1 0 0
   1 O    2     2.6886     5.0808    5 O    1 1 0    6 O    0 0 0
   1 O    2     2.6928     5.0887    9 O    0 1 1   10 O    1 0 1
   1 O    2     2.9746     5.6211   25 H    0 1 1   26 H    1 0 1
   1 O    2     3.1725     5.9951   17 H    1 1 0   18 H    0 0 0

   3 O    1     0.9852     1.8617   19 H    0 0 0
   3 O    1     0.9896     1.8701   15 H    0 0 0
   3 O    1     1.6574     3.1320   24 H    0 0 0
   3 O    1     1.7212     3.2526   14 H    0 0 1
   3 O    1     2.6483     5.0046    8 O    0 0 0
   3 O    1     2.6699     5.0454   10 O    0 0 1

   7 O    1     0.9850     1.8615   27 H    0 0 0
   7 O    1     0.9913     1.8732   23 H    0 0 0
   7 O    1     1.6807     3.1761   18 H    0 0 0
   7 O    1     1.7200     3.2503   20 H    0 1 0
   7 O    1     2.6483     5.0046    4 O    0 0 0
   7 O    1     2.6699     5.0454    6 O    0 0 0

  11 H    1     0.9838     1.8591    1 O    0 0 0
  11 H    1     1.5697     2.9663   12 H    1 1 0
  11 H    1     1.7212     3.2526    6 O    0 0 0
  11 H    1     2.2320     4.2179   29 H    0 1 0
  11 H    1     2.2823     4.3128   18 H    0 0 0
  11 H    1     2.3758     4.4897   30 H    1 0 0

  15 H    1     0.9896     1.8701    3 O    0 0 0
  15 H    1     1.5832     2.9918   19 H    0 0 0
  15 H    1     1.6807     3.1761   10 O    0 0 1
  15 H    1     2.1351     4.0347   24 H    0 0 0
  15 H    1     2.1531     4.0688   26 H    0 0 1
  15 H    1     2.2127     4.1815   30 H    0 0 0

  19 H    1     0.9852     1.8617    3 O    0 0 0
  19 H    1     1.5832     2.9918   15 H    0 0 0
  19 H    1     1.7200     3.2503    8 O    0 1 0
  19 H    1     2.1801     4.1199   24 H    0 0 0
  19 H    1     2.2260     4.2065   24 H    0 1 0
  19 H    1     2.3952     4.5262   28 H    0 1 0

  23 H    1     0.9913     1.8732    7 O    0 0 0
  23 H    1     1.5684     2.9638   27 H    0 0 0
  23 H    1     1.6574     3.1320    4 O    0 0 0
  23 H    1     2.1351     4.0347   16 H    0 0 0
  23 H    1     2.1531     4.0688   18 H    0 0 0
  23 H    1     2.1801     4.1199   20 H    0 0 0

  27 H    1     0.9850     1.8615    7 O    0 0 0
  27 H    1     1.5684     2.9638   23 H    0 0 0
  27 H    1     1.7272     3.2640    2 O    0 0 0
  27 H    1     2.2127     4.1815   18 H    0 0 0
  27 H    1     2.2320     4.2179   13 H    0 0 0
  27 H    1     2.3758     4.4897   14 H    0 0 0


 SYMMETRY ALLOWED INTERNAL DEGREE(S) OF FREEDOM:  21
 TTTTTTTTTTTTTTTTTTTTTTTTTTTTTT SYMM        TELAPSE        6.03 TCPU        5.74
 TTTTTTTTTTTTTTTTTTTTTTTTTTTTTT INT_SCREEN  TELAPSE        6.03 TCPU        5.75

 DFT PARAMETERS

     ATOM       ELECTRONS   NET CHARGE   R(ANGSTROM)
   1   8  O       8.0000      0.0000     0.74000000
  11   1  H       1.0000      0.0000     1.11000000

 SIZE OF GRID=     168982
 TTTTTTTTTTTTTTTTTTTTTTTTTTTTTT MAKE_GRID2  TELAPSE        8.33 TCPU        8.04
 BECKE WEIGHT FUNCTION
 RADSAFE =     2.00
 TOLERANCES - DENSITY:10**- 6; POTENTIAL:10**- 9; GRID WGT:10**-14

 RADIAL INTEGRATION  - INTERVALS (POINTS,UPPER LIMIT):            1( 75,  4.0*R)

 ANGULAR INTEGRATION - INTERVALS (ACCURACY LEVEL [N. POINTS] UPPER LIMIT):
  1(  4[  86]   0.2)  2(  8[ 194]   0.5)  3( 12[ 350]   0.9)  4( 16[ 974]   3.5)
  5( 12[ 350]9999.0)
 TTTTTTTTTTTTTTTTTTTTTTTTTTTTTT INT_CALC    TELAPSE        8.35 TCPU        8.07
 EEEEEEEEEE INT_CALC TERMINATION  DATE 25 03 2019 TIME 17:52:49.5

 *******************************************************************************
 !drive by JGB                                                                   
 CRYSTAL - SCF - TYPE OF CALCULATION :  RESTRICTED CLOSED SHELL
 *******************************************************************************

 CAPPA:IS1  1;IS2  2;IS3  2; K PTS MONK NET   4; SYMMOPS:K SPACE   8;G SPACE   4

 TTTTTTTTTTTTTTTTTTTTTTTTTTTTTT SDIK        TELAPSE        8.48 TCPU        8.12

 AAAAAAAAAAAAAAAAAAAAAAAAAAAAAAAAAAAAAAAAAAAAAAAAAAAAAAAAAAAAAAAAAAAAAAAAAAAAAAA
         ATOMIC WAVEFUNCTION(S)


 NUCLEAR CHARGE  8.0  SYMMETRY SPECIES            S    P
 N. ELECTRONS    8.0  NUMBER OF PRIMITIVE GTOS    8    4
                      NUMBER OF CONTRACTED GTOS   4    2
                      NUMBER OF CLOSED SHELLS     2    0
                      OPEN SHELL OCCUPATION       0    4

  ZNUC SCFIT  TOTAL HF ENERGY   KINETIC ENERGY   VIRIAL THEOREM ACCURACY
   8.0  12   -7.477373220E+01  7.477365593E+01 -2.000001020E+00  3.8E-06

 NUCLEAR CHARGE  1.0  SYMMETRY SPECIES            S
 N. ELECTRONS    1.0  NUMBER OF PRIMITIVE GTOS    4
                      NUMBER OF CONTRACTED GTOS   2
                      NUMBER OF CLOSED SHELLS     0
                      OPEN SHELL OCCUPATION       1

  ZNUC SCFIT  TOTAL HF ENERGY   KINETIC ENERGY   VIRIAL THEOREM ACCURACY
   1.0   1   -4.977266687E-01  5.190767460E-01 -1.958869132E+00  1.8E-16

 AAAAAAAAAAAAAAAAAAAAAAAAAAAAAAAAAAAAAAAAAAAAAAAAAAAAAAAAAAAAAAAAAAAAAAAAAAAAAAA

 CHARGE NORMALIZATION FACTOR   1.00000000
 TOTAL ATOMIC CHARGES:
   8.0000000   8.0000000   8.0000000   8.0000000   8.0000000   8.0000000
   8.0000000   8.0000000   8.0000000   8.0000000   1.0000000   1.0000000
   1.0000000   1.0000000   1.0000000   1.0000000   1.0000000   1.0000000
   1.0000000   1.0000000   1.0000000   1.0000000   1.0000000   1.0000000
   1.0000000   1.0000000   1.0000000   1.0000000   1.0000000   1.0000000
 TTTTTTTTTTTTTTTTTTTTTTTTTTTTTT MOQGAD      TELAPSE        8.86 TCPU        8.50
 TTTTTTTTTTTTTTTTTTTTTTTTTTTTTT SHELLXN     TELAPSE       12.54 TCPU       12.14
 TTTTTTTTTTTTTTTTTTTTTTTTTTTTTT MONMO3      TELAPSE       13.37 TCPU       12.97
 NUMERICALLY INTEGRATED DENSITY    100.0000218258
 TTTTTTTTTTTTTTTTTTTTTTTTTTTTTT NUMDFT      TELAPSE       13.68 TCPU       13.27
 CYC   0 ETOT(AU) -7.633345970320E+02 DETOT -7.63E+02 tst  0.00E+00 PX  1.00E+00
 TTTTTTTTTTTTTTTTTTTTTTTTTTTTTT DIIS        TELAPSE       13.68 TCPU       13.28
 TTTTTTTTTTTTTTTTTTTTTTTTTTTTTT FDIK        TELAPSE       14.09 TCPU       13.41
 INSULATING STATE
 TOP OF VALENCE BANDS -    BAND     50; K    3; EIG -4.1789639E-01 AU
 TOP OF VALENCE BANDS -    BAND     50; K    1; EIG -4.2061602E-01 AU
 BOTTOM OF VIRTUAL BANDS - BAND     51; K    1; EIG -7.3291295E-02 AU
 INDIRECT ENERGY BAND GAP:   9.3772 eV
 TTTTTTTTTTTTTTTTTTTTTTTTTTTTTT PDIG        TELAPSE       14.09 TCPU       13.41
 CHARGE NORMALIZATION FACTOR   1.00000000
 TOTAL ATOMIC CHARGES:
   9.0746041   9.0746041   9.0764279   9.0764279   9.0764279   9.0764279
   9.0752340   9.0752340   9.0752340   9.0752340   0.4592238   0.4592238
   0.4592238   0.4592238   0.4646110   0.4646110   0.4646110   0.4646110
   0.4585449   0.4585449   0.4585449   0.4585449   0.4667150   0.4667150
   0.4667150   0.4667150   0.4619414   0.4619414   0.4619414   0.4619414
 TTTTTTTTTTTTTTTTTTTTTTTTTTTTTT MOQGAD      TELAPSE       14.10 TCPU       13.41
 TTTTTTTTTTTTTTTTTTTTTTTTTTTTTT SHELLXN     TELAPSE       17.83 TCPU       17.14
 TTTTTTTTTTTTTTTTTTTTTTTTTTTTTT MONMO3      TELAPSE       18.72 TCPU       18.03
 NUMERICALLY INTEGRATED DENSITY    100.0000184582
 TTTTTTTTTTTTTTTTTTTTTTTTTTTTTT NUMDFT      TELAPSE       19.38 TCPU       18.69
 CYC   1 ETOT(AU) -7.627326998575E+02 DETOT  6.02E-01 tst  0.00E+00 PX  1.00E+00
 TTTTTTTTTTTTTTTTTTTTTTTTTTTTTT DIIS        TELAPSE       19.40 TCPU       18.72
 DIIS TEST: 0.96888E+00 AT SCF   CYCLE   1 - MIX   30 %
 TTTTTTTTTTTTTTTTTTTTTTTTTTTTTT FDIK        TELAPSE       19.41 TCPU       18.72
 INSULATING STATE
 TOP OF VALENCE BANDS -    BAND     50; K    3; EIG -3.2058214E-01 AU
 TOP OF VALENCE BANDS -    BAND     50; K    1; EIG -3.2382508E-01 AU
 BOTTOM OF VIRTUAL BANDS - BAND     51; K    1; EIG -1.2989675E-02 AU
 INDIRECT ENERGY BAND GAP:   8.3700 eV
 TTTTTTTTTTTTTTTTTTTTTTTTTTTTTT PDIG        TELAPSE       19.41 TCPU       18.72
 CHARGE NORMALIZATION FACTOR   1.00000000
 TOTAL ATOMIC CHARGES:
   8.8687135   8.8687135   8.8753599   8.8753599   8.8753599   8.8753599
   8.8718243   8.8718243   8.8718243   8.8718243   0.5595802   0.5595802
   0.5595802   0.5595802   0.5669293   0.5669293   0.5669293   0.5669293
   0.5592482   0.5592482   0.5592482   0.5592482   0.5676524   0.5676524
   0.5676524   0.5676524   0.5650490   0.5650490   0.5650490   0.5650490
 TTTTTTTTTTTTTTTTTTTTTTTTTTTTTT MOQGAD      TELAPSE       19.41 TCPU       18.72
 TTTTTTTTTTTTTTTTTTTTTTTTTTTTTT SHELLXN     TELAPSE       23.14 TCPU       22.45
 TTTTTTTTTTTTTTTTTTTTTTTTTTTTTT MONMO3      TELAPSE       24.03 TCPU       23.34
 NUMERICALLY INTEGRATED DENSITY    100.0000164395
 TTTTTTTTTTTTTTTTTTTTTTTTTTTTTT NUMDFT      TELAPSE       24.67 TCPU       23.98
 CYC   2 ETOT(AU) -7.629350476798E+02 DETOT -2.02E-01 tst  2.81E-03 PX  1.18E-01
 TTTTTTTTTTTTTTTTTTTTTTTTTTTTTT DIIS        TELAPSE       24.69 TCPU       24.00
 DIIS TEST: 0.20280E+00 AT SCF   CYCLE   2 - DIIS ACTIVE - HISTORY:     2 CYCLES
 TTTTTTTTTTTTTTTTTTTTTTTTTTTTTT FDIK        TELAPSE       24.69 TCPU       24.00
 INSULATING STATE
 TOP OF VALENCE BANDS -    BAND     50; K    3; EIG -3.6363416E-01 AU
 TOP OF VALENCE BANDS -    BAND     50; K    1; EIG -3.6612937E-01 AU
 BOTTOM OF VIRTUAL BANDS - BAND     51; K    1; EIG -1.4162599E-02 AU
 INDIRECT ENERGY BAND GAP:   9.5096 eV
 TTTTTTTTTTTTTTTTTTTTTTTTTTTTTT PDIG        TELAPSE       24.70 TCPU       24.01
 CHARGE NORMALIZATION FACTOR   1.00000000
 TOTAL ATOMIC CHARGES:
   8.9413593   8.9413593   8.9433886   8.9433886   8.9433886   8.9433886
   8.9420869   8.9420869   8.9420869   8.9420869   0.5247190   0.5247190
   0.5247190   0.5247190   0.5323013   0.5323013   0.5323013   0.5323013
   0.5250262   0.5250262   0.5250262   0.5250262   0.5316869   0.5316869
   0.5316869   0.5316869   0.5301115   0.5301115   0.5301115   0.5301115
 TTTTTTTTTTTTTTTTTTTTTTTTTTTTTT MOQGAD      TELAPSE       24.70 TCPU       24.01
 TTTTTTTTTTTTTTTTTTTTTTTTTTTTTT SHELLXN     TELAPSE       28.43 TCPU       27.74
 TTTTTTTTTTTTTTTTTTTTTTTTTTTTTT MONMO3      TELAPSE       29.32 TCPU       28.62
 NUMERICALLY INTEGRATED DENSITY    100.0000169624
 TTTTTTTTTTTTTTTTTTTTTTTTTTTTTT NUMDFT      TELAPSE       29.96 TCPU       29.26
 CYC   3 ETOT(AU) -7.629874430656E+02 DETOT -5.24E-02 tst  2.43E-04 PX  3.84E-02
 TTTTTTTTTTTTTTTTTTTTTTTTTTTTTT DIIS        TELAPSE       29.96 TCPU       29.27
 DIIS TEST: 0.42681E-03 AT SCF   CYCLE   3 - DIIS ACTIVE - HISTORY:     3 CYCLES
 TTTTTTTTTTTTTTTTTTTTTTTTTTTTTT FDIK        TELAPSE       29.97 TCPU       29.27
 INSULATING STATE
 TOP OF VALENCE BANDS -    BAND     50; K    3; EIG -3.6149917E-01 AU
 TOP OF VALENCE BANDS -    BAND     50; K    1; EIG -3.6461210E-01 AU
 BOTTOM OF VIRTUAL BANDS - BAND     51; K    1; EIG -1.2269273E-02 AU
 INDIRECT ENERGY BAND GAP:   9.5030 eV
 TTTTTTTTTTTTTTTTTTTTTTTTTTTTTT PDIG        TELAPSE       29.97 TCPU       29.27
 CHARGE NORMALIZATION FACTOR   1.00000000
 TOTAL ATOMIC CHARGES:
   8.9368361   8.9368361   8.9433397   8.9433397   8.9433397   8.9433397
   8.9407370   8.9407370   8.9407370   8.9407370   0.5262785   0.5262785
   0.5262785   0.5262785   0.5325323   0.5325323   0.5325323   0.5325323
   0.5255428   0.5255428   0.5255428   0.5255428   0.5321383   0.5321383
   0.5321383   0.5321383   0.5310135   0.5310135   0.5310135   0.5310135
 TTTTTTTTTTTTTTTTTTTTTTTTTTTTTT MOQGAD      TELAPSE       29.97 TCPU       29.28
 TTTTTTTTTTTTTTTTTTTTTTTTTTTTTT SHELLXN     TELAPSE       33.70 TCPU       33.00
 TTTTTTTTTTTTTTTTTTTTTTTTTTTTTT MONMO3      TELAPSE       34.58 TCPU       33.89
 NUMERICALLY INTEGRATED DENSITY    100.0000169391
 TTTTTTTTTTTTTTTTTTTTTTTTTTTTTT NUMDFT      TELAPSE       35.22 TCPU       34.52
 CYC   4 ETOT(AU) -7.629875386174E+02 DETOT -9.56E-05 tst  7.25E-07 PX  2.05E-03
 TTTTTTTTTTTTTTTTTTTTTTTTTTTTTT DIIS        TELAPSE       35.23 TCPU       34.53
 DIIS TEST: 0.34111E-04 AT SCF   CYCLE   4 - DIIS ACTIVE - HISTORY:     4 CYCLES
 TTTTTTTTTTTTTTTTTTTTTTTTTTTTTT FDIK        TELAPSE       35.30 TCPU       34.53
 INSULATING STATE
 TOP OF VALENCE BANDS -    BAND     50; K    3; EIG -3.6190473E-01 AU
 TOP OF VALENCE BANDS -    BAND     50; K    1; EIG -3.6430351E-01 AU
 BOTTOM OF VIRTUAL BANDS - BAND     51; K    1; EIG -1.2071066E-02 AU
 INDIRECT ENERGY BAND GAP:   9.5195 eV
 TTTTTTTTTTTTTTTTTTTTTTTTTTTTTT PDIG        TELAPSE       35.30 TCPU       34.53
 CHARGE NORMALIZATION FACTOR   1.00000000
 TOTAL ATOMIC CHARGES:
   8.9397643   8.9397643   8.9418860   8.9418860   8.9418860   8.9418860
   8.9407721   8.9407721   8.9407721   8.9407721   0.5255332   0.5255332
   0.5255332   0.5255332   0.5329723   0.5329723   0.5329723   0.5329723
   0.5258300   0.5258300   0.5258300   0.5258300   0.5323386   0.5323386
   0.5323386   0.5323386   0.5307856   0.5307856   0.5307856   0.5307856
 TTTTTTTTTTTTTTTTTTTTTTTTTTTTTT MOQGAD      TELAPSE       35.30 TCPU       34.54
 TTTTTTTTTTTTTTTTTTTTTTTTTTTTTT SHELLXN     TELAPSE       39.04 TCPU       38.27
 TTTTTTTTTTTTTTTTTTTTTTTTTTTTTT MONMO3      TELAPSE       39.92 TCPU       39.15
 NUMERICALLY INTEGRATED DENSITY    100.0000169387
 TTTTTTTTTTTTTTTTTTTTTTTTTTTTTT NUMDFT      TELAPSE       40.57 TCPU       39.80
 CYC   5 ETOT(AU) -7.629875432536E+02 DETOT -4.64E-06 tst  1.42E-07 PX  1.31E-03
 TTTTTTTTTTTTTTTTTTTTTTTTTTTTTT DIIS        TELAPSE       40.57 TCPU       39.80
 DIIS TEST: 0.19722E-04 AT SCF   CYCLE   5 - DIIS ACTIVE - HISTORY:     5 CYCLES
 TTTTTTTTTTTTTTTTTTTTTTTTTTTTTT FDIK        TELAPSE       40.58 TCPU       39.80
 INSULATING STATE
 TOP OF VALENCE BANDS -    BAND     50; K    3; EIG -3.6164089E-01 AU
 TOP OF VALENCE BANDS -    BAND     50; K    1; EIG -3.6445576E-01 AU
 BOTTOM OF VIRTUAL BANDS - BAND     51; K    1; EIG -1.2046937E-02 AU
 INDIRECT ENERGY BAND GAP:   9.5129 eV
 TTTTTTTTTTTTTTTTTTTTTTTTTTTTTT PDIG        TELAPSE       40.58 TCPU       39.81
 CHARGE NORMALIZATION FACTOR   1.00000000
 TOTAL ATOMIC CHARGES:
   8.9383123   8.9383123   8.9426357   8.9426357   8.9426357   8.9426357
   8.9406882   8.9406882   8.9406882   8.9406882   0.5258833   0.5258833
   0.5258833   0.5258833   0.5327891   0.5327891   0.5327891   0.5327891
   0.5256487   0.5256487   0.5256487   0.5256487   0.5322905   0.5322905
   0.5322905   0.5322905   0.5309084   0.5309084   0.5309084   0.5309084
 TTTTTTTTTTTTTTTTTTTTTTTTTTTTTT MOQGAD      TELAPSE       40.58 TCPU       39.81
 TTTTTTTTTTTTTTTTTTTTTTTTTTTTTT SHELLXN     TELAPSE       44.31 TCPU       43.54
 TTTTTTTTTTTTTTTTTTTTTTTTTTTTTT MONMO3      TELAPSE       45.19 TCPU       44.42
 NUMERICALLY INTEGRATED DENSITY    100.0000169398
 TTTTTTTTTTTTTTTTTTTTTTTTTTTTTT NUMDFT      TELAPSE       45.84 TCPU       45.06
 CYC   6 ETOT(AU) -7.629875481682E+02 DETOT -4.91E-06 tst  2.64E-08 PX  6.50E-04
 TTTTTTTTTTTTTTTTTTTTTTTTTTTTTT DIIS        TELAPSE       45.84 TCPU       45.06
 DIIS TEST: 0.22328E-06 AT SCF   CYCLE   6 - DIIS ACTIVE - HISTORY:     6 CYCLES
 TTTTTTTTTTTTTTTTTTTTTTTTTTTTTT FDIK        TELAPSE       45.84 TCPU       45.07
 INSULATING STATE
 TOP OF VALENCE BANDS -    BAND     50; K    3; EIG -3.6164606E-01 AU
 TOP OF VALENCE BANDS -    BAND     50; K    1; EIG -3.6445250E-01 AU
 BOTTOM OF VIRTUAL BANDS - BAND     51; K    1; EIG -1.2038684E-02 AU
 INDIRECT ENERGY BAND GAP:   9.5133 eV
 TTTTTTTTTTTTTTTTTTTTTTTTTTTTTT PDIG        TELAPSE       45.85 TCPU       45.07
 CHARGE NORMALIZATION FACTOR   1.00000000
 TOTAL ATOMIC CHARGES:
   8.9383135   8.9383135   8.9425362   8.9425362   8.9425362   8.9425362
   8.9407130   8.9407130   8.9407130   8.9407130   0.5258978   0.5258978
   0.5258978   0.5258978   0.5328072   0.5328072   0.5328072   0.5328072
   0.5256833   0.5256833   0.5256833   0.5256833   0.5322943   0.5322943
   0.5322943   0.5322943   0.5309114   0.5309114   0.5309114   0.5309114
 TTTTTTTTTTTTTTTTTTTTTTTTTTTTTT MOQGAD      TELAPSE       45.85 TCPU       45.07
 TTTTTTTTTTTTTTTTTTTTTTTTTTTTTT SHELLXN     TELAPSE       49.59 TCPU       48.81
 TTTTTTTTTTTTTTTTTTTTTTTTTTTTTT MONMO3      TELAPSE       50.47 TCPU       49.69
 NUMERICALLY INTEGRATED DENSITY    100.0000169393
 TTTTTTTTTTTTTTTTTTTTTTTTTTTTTT NUMDFT      TELAPSE       51.11 TCPU       50.33
 CYC   7 ETOT(AU) -7.629875482230E+02 DETOT -5.48E-08 tst  4.89E-10 PX  4.53E-05
 TTTTTTTTTTTTTTTTTTTTTTTTTTTTTT DIIS        TELAPSE       51.12 TCPU       50.34
 DIIS TEST: 0.21114E-07 AT SCF   CYCLE   7 - DIIS ACTIVE - HISTORY:     7 CYCLES
 TTTTTTTTTTTTTTTTTTTTTTTTTTTTTT FDIK        TELAPSE       51.12 TCPU       50.34
 INSULATING STATE
 TOP OF VALENCE BANDS -    BAND     50; K    3; EIG -3.6164409E-01 AU
 TOP OF VALENCE BANDS -    BAND     50; K    1; EIG -3.6443955E-01 AU
 BOTTOM OF VIRTUAL BANDS - BAND     51; K    1; EIG -1.2037920E-02 AU
 INDIRECT ENERGY BAND GAP:   9.5133 eV
 TTTTTTTTTTTTTTTTTTTTTTTTTTTTTT PDIG        TELAPSE       51.12 TCPU       50.34
 CHARGE NORMALIZATION FACTOR   1.00000000
 TOTAL ATOMIC CHARGES:
   8.9383458   8.9383458   8.9425724   8.9425724   8.9425724   8.9425724
   8.9406497   8.9406497   8.9406497   8.9406497   0.5258867   0.5258867
   0.5258867   0.5258867   0.5328083   0.5328083   0.5328083   0.5328083
   0.5256782   0.5256782   0.5256782   0.5256782   0.5323082   0.5323082
   0.5323082   0.5323082   0.5309235   0.5309235   0.5309235   0.5309235
 TTTTTTTTTTTTTTTTTTTTTTTTTTTTTT MOQGAD      TELAPSE       51.13 TCPU       50.34
 TTTTTTTTTTTTTTTTTTTTTTTTTTTTTT SHELLXN     TELAPSE       54.86 TCPU       54.07
 +++ ENERGIES IN A.U. +++
 ::: EXT EL-POLE                                  -7.8975305415095E+02
 ::: EXT EL-SPHEROPOLE                             9.4071529931121E+00
 ::: BIELET ZONE E-E                               9.9223790423621E+02
 ::: TOTAL E-E                                     2.1189200307836E+02
 ::: TOTAL E-N + N-E                              -1.5298795121535E+03
 ::: TOTAL N-N                                    -1.4591237012695E+02
 ::: KINETIC ENERGY                                7.5815590625654E+02
 ::: PSEUDO TOTAL   ENERGY                        -7.0574397294549E+02
 ::: VIRIAL COEFFICIENT                            1.0358029494064E+00
 TTTTTTTTTTTTTTTTTTTTTTTTTTTTTT MONMO3      TELAPSE       55.74 TCPU       54.96
 NUMERICALLY INTEGRATED DENSITY    100.0000169398
 TTTTTTTTTTTTTTTTTTTTTTTTTTTTTT NUMDFT      TELAPSE       56.38 TCPU       55.60
 CYC   8 ETOT(AU) -7.629875482225E+02 DETOT  5.37E-10 tst  9.89E-11 PX  4.53E-05

 == SCF ENDED - CONVERGENCE ON ENERGY      E(AU) -7.6298754822250E+02 CYCLES   8


 ENERGY EXPRESSION=HARTREE+FOCK EXCH*0.00000+(HSE-3c     EXCH)*1.00000+PBEh-3c    CORR


 TOTAL ENERGY(DFT)(AU)(  8) -7.6298754822250E+02 DE 5.4E-10 tester 9.9E-11
 TTTTTTTTTTTTTTTTTTTTTTTTTTTTTT EDFT        TELAPSE       56.38 TCPU       55.60
 
 INFORMATION **** DFTD3 ENERGY **** CALCULATE DFTD3 ENERGY

           DFT-D V3(BJ)
 DF                                         hse3c     
 parameters
 s6       :    1.0000
 s8       :    0.0000
 a1       :    0.4411
 a2       :    4.5182
 k1 k3    :   16.0000   -4.0000
 Cutoff   :   50.2022
 CN-Cutoff:   21.1671
 
 Edisp /kcal,au:   -18.5175 -0.02950948

 E6    /kcal :   -19.9113
 E8    /kcal :     0.0000
 E6(ABC) "   :   1.393836
 
 INFORMATION **** DFTD3 ENERGY **** NORMAL TERMINATION OF DFTD3 MODULE

 GCP ENERGY CALCULATION
  level           hse3c               basis:hse3c
  Nbf            190
  Atoms           30

  Parameters: 
  sigma     1.0000
  eta       1.4086
  alpha     0.2908
  beta      1.9526

  dmp_scal      4.0000
  dmp_exp       6.0000
 cutoffs: 
   distance [bohr] 60.0
   noise    [a.u.] 2.2E-16
 SR-damping   T
 ** gCP correction **
  Egcp:        0.1325659580 / (a.u.) ||      83.1864 / (kcal/mol)
 INFORMATION **** GCP **** NORMAL TERMINATION OF GCP MODULE

 *******************************************************************************

 DFT-D3-GCP DISPERSION AND COUNTERPOISE CORRECTION

 D3 DISPERSION ENERGY (AU)      -2.9509477718330E-02
 GCP ENERGY (AU)                 1.3256595796253E-01
 TOTAL ENERGY + DISP + GCP (AU) -7.6288449174225E+02

 *******************************************************************************

 EIGENVECTORS IN FORTRAN UNIT  8
 TTTTTTTTTTTTTTTTTTTTTTTTTTTTTT END         TELAPSE       57.29 TCPU       56.47
 EEEEEEEEEE TERMINATION  DATE 25 03 2019 TIME 17:53:38.5
NODE    0 CPU TIME =        56.475
NODE    1 CPU TIME =        56.458
NODE    2 CPU TIME =        56.824
NODE    3 CPU TIME =        56.434
NODE    4 CPU TIME =        56.854
NODE    5 CPU TIME =        56.863
NODE    6 CPU TIME =        56.678
NODE    7 CPU TIME =        50.845
    TOTAL CPU TIME =       447.431
