 PROCESS            2  OF            8  WORKING
 PROCESS            6  OF            8  WORKING
 PROCESS            4  OF            8  WORKING
 PROCESS            7  OF            8  WORKING
 PROCESS            5  OF            8  WORKING
 PROCESS            3  OF            8  WORKING
 PROCESS            0  OF            8  WORKING
 PROCESS            1  OF            8  WORKING

         
 *******************************************************************************
 *                                                                             *
 *                               CRYSTAL17                                     *
 *                      public : 1.0.1 - Feb 1st, 2017                         *
 *                       HTTP://WWW.CRYSTAL.UNITO.IT                           *
 *                                                                             *
 *                              MAIN AUTHORS                                   *
 *                                                                             *
 *  R. DOVESI(1,11), V.R. SAUNDERS(2), C. ROETTI(1,11), R. ORLANDO(1,11),      *
 *  C.M. ZICOVICH-WILSON(1,3), F. PASCALE(4), B. CIVALLERI(1,11),              *
 *  K. DOLL(5), N.M. HARRISON(2,6), I.J. BUSH(7), Ph. D'ARCO(8),               *
 *  M. LLUNELL(9), M. CAUSA'(10), Y. NOEL(8), L. MASCHIO(1,11), A. ERBA(1,11)  *
 *  M. RE'RAT(14), S. CASASSA(1,11)                                            *
 *                                                                             *
 *        CONTRIBUTIONS TO THE CODE HAVE ALSO BEEN GIVEN BY                    *
 *                                                                             *
 *  M. FERRABONE(1,11), M. DE LA PIERRE(1,11), M. FERRERO(1,11),               *
 *  J. BAIMA(1,11), E. ALBANESE(1,11), M.F. PEINTINGER(12), R. BAST(13),       *
 *  B. KIRTMAN(15), V. LACIVITA(1,11), R. DEMICHELIS(1,16)                     *
 *  G. BRANDEBURG(17), S. SALUSTRO(1,11), G. SANSONE(1,11)                     *
 *  M.T. RUGGIERO(18)                                                          *
 *                                                                             *
 * (1) THEORETICAL CHEMISTRY GROUP - UNIVERSITA' DI TORINO - TORINO (ITALY)    *

 * (2) COMPUTATIONAL SCIENCE & ENGINEERING DEPARTMENT - STFC DARESBURY (UK)    *
 * (3) UNIVERSIDAD AUTONOMA DEL ESTADO DE MORELOS - CUERNAVACA (MEXICO)        *
 * (4) UNIVERSITE' DE LORRAINE - NANCY (FRANCE)                                *
 * (5) UNIVERSITAET STUTTGART- STUTTGART (GERMANY)                             *
 * (6) IMPERIAL COLLEGE - LONDON (UK)                                          *
 * (7) OXFORD E-RESEARCH CENTRE - OXFORD (UK)                                  *
 * (8) UPMC - SORBONNE UNIVERSITES - PARIS (FRANCE)                            *
 * (9) UNIVERSIDAD DE BARCELONA - BARCELONA (SPAIN)                            *
 *(10) UNIVERSITA' DI NAPOLI "FEDERICO II" - NAPOLI (ITALY)                    *
 *(11) NIS - NANOSTRUCTURED INTERFACES AND SURFACES - TORINO (ITALY)           *
 *(12) MPI FUER CHEMISCHE ENERGIEKONVERSION - MUELHEIM AN DER RUHR (GERMANY)   *
 *(13) UNIVERSITY OF TROMSO - TROMSO (NORWAY)                                  *
 *(14) UNIVERSITE' DE PAU ET DES PAYS DE L'ADOUR - PAU (FRANCE)                *
 *(15) UNIVERSITY OF CALIFORNIA SANTA BARBARA - SANTA BARBARA (USA)            *
 *(16) CURTIN UNIVERSITY - PERTH (AUSTRALIA)                                   *
 *(17) UNIVERSITY COLLEGE LONDON - LONDON (UK)                                 *
 *(18) CAMBRIDGE UNIVERSITY - CAMBRIDGE (UK)                                   *
 *                                                                             *
 *******************************************************************************
 EEEEEEEEEE STARTING  DATE 25 03 2019 TIME 17:50:33.5
 !drive by JGB                                                                   

 CRYSTAL CALCULATION
 (INPUT ACCORDING TO THE INTERNATIONAL TABLES FOR X-RAY CRYSTALLOGRAPHY)
 CRYSTAL FAMILY                       :  CUBIC       
 CRYSTAL CLASS  (GROTH - 1921)        :  CUBIC HEXAKISOCTAHEDRAL              

 SPACE GROUP (CENTROSYMMETRIC)        :  I A 3 D         

 LATTICE PARAMETERS  (ANGSTROMS AND DEGREES) - CONVENTIONAL CELL
        A           B           C        ALPHA        BETA       GAMMA
    16.20074    16.20074    16.20074    90.00000    90.00000    90.00000


 NUMBER OF IRREDUCIBLE ATOMS IN THE CONVENTIONAL CELL:    3

 INPUT COORDINATES

 ATOM AT. N.              COORDINATES
   1   8     1.314606909097E-01  9.018101211417E-01  1.003616772763E-03
   2   1     1.712561631633E-01  9.031329523404E-01  4.573663406638E-02
   3   1     7.947537655401E-02  8.852090185501E-01  2.708315263707E-02

 *******************************************************************************

 << INFORMATION >>: FROM NOW ON, ALL COORDINATES REFER TO THE PRIMITIVE CELL

 *******************************************************************************

 LATTICE PARAMETERS  (ANGSTROMS AND DEGREES) - PRIMITIVE CELL
       A          B          C        ALPHA      BETA     GAMMA        VOLUME
   14.03025   14.03025   14.03025   109.47122 109.47122 109.47122   2126.055637

 COORDINATES OF THE EQUIVALENT ATOMS (FRACTIONAL UNITS)

 N. ATOM EQUIV AT. N.          X                  Y                  Z

   1   1   1    8 O    -9.71862620855E-02  1.32464307682E-01  3.32708120514E-02
   2   1   2    8 O    -4.00806504369E-01 -1.30457074137E-01  4.66729187949E-01
   3   1   3    8 O    -4.02813737914E-01 -3.69542925863E-01  2.29650569768E-01
   4   1   4    8 O    -9.91934956311E-02  3.67535692318E-01  2.70349430232E-01
   5   1   5    8 O     3.32708120514E-02 -9.71862620855E-02  1.32464307682E-01
   6   1   6    8 O     1.32464307682E-01  3.32708120514E-02 -9.71862620855E-02
   7   1   7    8 O     2.70349430232E-01 -9.91934956311E-02  3.67535692318E-01
   8   1   8    8 O    -1.30457074137E-01  4.66729187949E-01 -4.00806504369E-01
   9   1   9    8 O     4.66729187949E-01 -4.00806504369E-01 -1.30457074137E-01
  10   1  10    8 O    -3.69542925863E-01  2.29650569768E-01 -4.02813737914E-01
  11   1  11    8 O     2.29650569768E-01 -4.02813737914E-01 -3.69542925863E-01
  12   1  12    8 O     3.67535692318E-01  2.70349430232E-01 -9.91934956311E-02
  13   1  13    8 O     3.67535692318E-01 -4.02813737914E-01  4.66729187949E-01
  14   1  14    8 O    -3.69542925863E-01 -9.91934956311E-02  3.32708120514E-02
  15   1  15    8 O    -1.30457074137E-01 -9.71862620855E-02  2.70349430232E-01
  16   1  16    8 O     1.32464307682E-01 -4.00806504369E-01  2.29650569768E-01
  17   1  17    8 O    -4.02813737914E-01  4.66729187949E-01  3.67535692318E-01
  18   1  18    8 O     4.66729187949E-01  3.67535692318E-01 -4.02813737914E-01
  19   1  19    8 O    -4.00806504369E-01  2.29650569768E-01  1.32464307682E-01
  20   1  20    8 O     3.32708120514E-02 -3.69542925863E-01 -9.91934956311E-02
  21   1  21    8 O    -9.91934956311E-02  3.32708120514E-02 -3.69542925863E-01
  22   1  22    8 O     2.70349430232E-01 -1.30457074137E-01 -9.71862620855E-02
  23   1  23    8 O    -9.71862620855E-02  2.70349430232E-01 -1.30457074137E-01
  24   1  24    8 O     2.29650569768E-01  1.32464307682E-01 -4.00806504369E-01
  25   1  25    8 O     9.71862620855E-02 -1.32464307682E-01 -3.32708120514E-02
  26   1  26    8 O     4.00806504369E-01  1.30457074137E-01 -4.66729187949E-01
  27   1  27    8 O     4.02813737914E-01  3.69542925863E-01 -2.29650569768E-01
  28   1  28    8 O     9.91934956311E-02 -3.67535692318E-01 -2.70349430232E-01
  29   1  29    8 O    -3.32708120514E-02  9.71862620855E-02 -1.32464307682E-01
  30   1  30    8 O    -1.32464307682E-01 -3.32708120514E-02  9.71862620855E-02
  31   1  31    8 O    -2.70349430232E-01  9.91934956311E-02 -3.67535692318E-01
  32   1  32    8 O     1.30457074137E-01 -4.66729187949E-01  4.00806504369E-01
  33   1  33    8 O    -4.66729187949E-01  4.00806504369E-01  1.30457074137E-01
  34   1  34    8 O     3.69542925863E-01 -2.29650569768E-01  4.02813737914E-01
  35   1  35    8 O    -2.29650569768E-01  4.02813737914E-01  3.69542925863E-01
  36   1  36    8 O    -3.67535692318E-01 -2.70349430232E-01  9.91934956311E-02
  37   1  37    8 O    -3.67535692318E-01  4.02813737914E-01 -4.66729187949E-01
  38   1  38    8 O     3.69542925863E-01  9.91934956311E-02 -3.32708120514E-02
  39   1  39    8 O     1.30457074137E-01  9.71862620855E-02 -2.70349430232E-01
  40   1  40    8 O    -1.32464307682E-01  4.00806504369E-01 -2.29650569768E-01
  41   1  41    8 O     4.02813737914E-01 -4.66729187949E-01 -3.67535692318E-01
  42   1  42    8 O    -4.66729187949E-01 -3.67535692318E-01  4.02813737914E-01
  43   1  43    8 O     4.00806504369E-01 -2.29650569768E-01 -1.32464307682E-01
  44   1  44    8 O    -3.32708120514E-02  3.69542925863E-01  9.91934956311E-02
  45   1  45    8 O     9.91934956311E-02 -3.32708120514E-02  3.69542925863E-01
  46   1  46    8 O    -2.70349430232E-01  1.30457074137E-01  9.71862620855E-02
  47   1  47    8 O     9.71862620855E-02 -2.70349430232E-01  1.30457074137E-01
  48   1  48    8 O    -2.29650569768E-01 -1.32464307682E-01  4.00806504369E-01

  49   2   1    1 H    -5.11304135933E-02  2.16992797230E-01  7.43891155037E-02
  50   2   2    1 H    -3.57396318274E-01 -1.25519529097E-01  4.25610884496E-01
  51   2   3    1 H    -4.48869586407E-01 -3.74480470903E-01  2.68123210823E-01
  52   2   4    1 H    -1.42603681726E-01  2.83007202770E-01  2.31876789177E-01
  53   2   5    1 H     7.43891155037E-02 -5.11304135933E-02  2.16992797230E-01
  54   2   6    1 H     2.16992797230E-01  7.43891155037E-02 -5.11304135933E-02
  55   2   7    1 H     2.31876789177E-01 -1.42603681726E-01  2.83007202770E-01
  56   2   8    1 H    -1.25519529097E-01  4.25610884496E-01 -3.57396318274E-01
  57   2   9    1 H     4.25610884496E-01 -3.57396318274E-01 -1.25519529097E-01
  58   2  10    1 H    -3.74480470903E-01  2.68123210823E-01 -4.48869586407E-01
  59   2  11    1 H     2.68123210823E-01 -4.48869586407E-01 -3.74480470903E-01
  60   2  12    1 H     2.83007202770E-01  2.31876789177E-01 -1.42603681726E-01
  61   2  13    1 H     2.83007202770E-01 -4.48869586407E-01  4.25610884496E-01
  62   2  14    1 H    -3.74480470903E-01 -1.42603681726E-01  7.43891155037E-02
  63   2  15    1 H    -1.25519529097E-01 -5.11304135933E-02  2.31876789177E-01
  64   2  16    1 H     2.16992797230E-01 -3.57396318274E-01  2.68123210823E-01
  65   2  17    1 H    -4.48869586407E-01  4.25610884496E-01  2.83007202770E-01
  66   2  18    1 H     4.25610884496E-01  2.83007202770E-01 -4.48869586407E-01
  67   2  19    1 H    -3.57396318274E-01  2.68123210823E-01  2.16992797230E-01
  68   2  20    1 H     7.43891155037E-02 -3.74480470903E-01 -1.42603681726E-01
  69   2  21    1 H    -1.42603681726E-01  7.43891155037E-02 -3.74480470903E-01
  70   2  22    1 H     2.31876789177E-01 -1.25519529097E-01 -5.11304135933E-02
  71   2  23    1 H    -5.11304135933E-02  2.31876789177E-01 -1.25519529097E-01
  72   2  24    1 H     2.68123210823E-01  2.16992797230E-01 -3.57396318274E-01
  73   2  25    1 H     5.11304135933E-02 -2.16992797230E-01 -7.43891155037E-02
  74   2  26    1 H     3.57396318274E-01  1.25519529097E-01 -4.25610884496E-01
  75   2  27    1 H     4.48869586407E-01  3.74480470903E-01 -2.68123210823E-01
  76   2  28    1 H     1.42603681726E-01 -2.83007202770E-01 -2.31876789177E-01
  77   2  29    1 H    -7.43891155037E-02  5.11304135933E-02 -2.16992797230E-01
  78   2  30    1 H    -2.16992797230E-01 -7.43891155037E-02  5.11304135933E-02
  79   2  31    1 H    -2.31876789177E-01  1.42603681726E-01 -2.83007202770E-01
  80   2  32    1 H     1.25519529097E-01 -4.25610884496E-01  3.57396318274E-01
  81   2  33    1 H    -4.25610884496E-01  3.57396318274E-01  1.25519529097E-01
  82   2  34    1 H     3.74480470903E-01 -2.68123210823E-01  4.48869586407E-01
  83   2  35    1 H    -2.68123210823E-01  4.48869586407E-01  3.74480470903E-01
  84   2  36    1 H    -2.83007202770E-01 -2.31876789177E-01  1.42603681726E-01
  85   2  37    1 H    -2.83007202770E-01  4.48869586407E-01 -4.25610884496E-01
  86   2  38    1 H     3.74480470903E-01  1.42603681726E-01 -7.43891155037E-02
  87   2  39    1 H     1.25519529097E-01  5.11304135933E-02 -2.31876789177E-01
  88   2  40    1 H    -2.16992797230E-01  3.57396318274E-01 -2.68123210823E-01
  89   2  41    1 H     4.48869586407E-01 -4.25610884496E-01 -2.83007202770E-01
  90   2  42    1 H    -4.25610884496E-01 -2.83007202770E-01  4.48869586407E-01
  91   2  43    1 H     3.57396318274E-01 -2.68123210823E-01 -2.16992797230E-01
  92   2  44    1 H    -7.43891155037E-02  3.74480470903E-01  1.42603681726E-01
  93   2  45    1 H     1.42603681726E-01 -7.43891155037E-02  3.74480470903E-01
  94   2  46    1 H    -2.31876789177E-01  1.25519529097E-01  5.11304135933E-02
  95   2  47    1 H     5.11304135933E-02 -2.31876789177E-01  1.25519529097E-01
  96   2  48    1 H    -2.68123210823E-01 -2.16992797230E-01  3.57396318274E-01

  97   3   1    1 H    -8.77078288128E-02  1.06558529191E-01 -3.53156048959E-02
  98   3   2    1 H    -3.58125865913E-01 -5.23922239169E-02 -4.64684395104E-01
  99   3   3    1 H    -4.12292171187E-01 -4.47607776083E-01  1.94266358004E-01
 100   3   4    1 H    -1.41874134087E-01  3.93441470809E-01  3.05733641996E-01
 101   3   5    1 H    -3.53156048959E-02 -8.77078288128E-02  1.06558529191E-01
 102   3   6    1 H     1.06558529191E-01 -3.53156048959E-02 -8.77078288128E-02
 103   3   7    1 H     3.05733641996E-01 -1.41874134087E-01  3.93441470809E-01
 104   3   8    1 H    -5.23922239169E-02 -4.64684395104E-01 -3.58125865913E-01
 105   3   9    1 H    -4.64684395104E-01 -3.58125865913E-01 -5.23922239169E-02
 106   3  10    1 H    -4.47607776083E-01  1.94266358004E-01 -4.12292171187E-01
 107   3  11    1 H     1.94266358004E-01 -4.12292171187E-01 -4.47607776083E-01
 108   3  12    1 H     3.93441470809E-01  3.05733641996E-01 -1.41874134087E-01
 109   3  13    1 H     3.93441470809E-01 -4.12292171187E-01 -4.64684395104E-01
 110   3  14    1 H    -4.47607776083E-01 -1.41874134087E-01 -3.53156048959E-02
 111   3  15    1 H    -5.23922239169E-02 -8.77078288128E-02  3.05733641996E-01
 112   3  16    1 H     1.06558529191E-01 -3.58125865913E-01  1.94266358004E-01
 113   3  17    1 H    -4.12292171187E-01 -4.64684395104E-01  3.93441470809E-01
 114   3  18    1 H    -4.64684395104E-01  3.93441470809E-01 -4.12292171187E-01
 115   3  19    1 H    -3.58125865913E-01  1.94266358004E-01  1.06558529191E-01
 116   3  20    1 H    -3.53156048959E-02 -4.47607776083E-01 -1.41874134087E-01
 117   3  21    1 H    -1.41874134087E-01 -3.53156048959E-02 -4.47607776083E-01
 118   3  22    1 H     3.05733641996E-01 -5.23922239169E-02 -8.77078288128E-02
 119   3  23    1 H    -8.77078288128E-02  3.05733641996E-01 -5.23922239169E-02
 120   3  24    1 H     1.94266358004E-01  1.06558529191E-01 -3.58125865913E-01
 121   3  25    1 H     8.77078288128E-02 -1.06558529191E-01  3.53156048959E-02
 122   3  26    1 H     3.58125865913E-01  5.23922239169E-02  4.64684395104E-01
 123   3  27    1 H     4.12292171187E-01  4.47607776083E-01 -1.94266358004E-01
 124   3  28    1 H     1.41874134087E-01 -3.93441470809E-01 -3.05733641996E-01
 125   3  29    1 H     3.53156048959E-02  8.77078288128E-02 -1.06558529191E-01
 126   3  30    1 H    -1.06558529191E-01  3.53156048959E-02  8.77078288128E-02
 127   3  31    1 H    -3.05733641996E-01  1.41874134087E-01 -3.93441470809E-01
 128   3  32    1 H     5.23922239169E-02  4.64684395104E-01  3.58125865913E-01
 129   3  33    1 H     4.64684395104E-01  3.58125865913E-01  5.23922239169E-02
 130   3  34    1 H     4.47607776083E-01 -1.94266358004E-01  4.12292171187E-01
 131   3  35    1 H    -1.94266358004E-01  4.12292171187E-01  4.47607776083E-01
 132   3  36    1 H    -3.93441470809E-01 -3.05733641996E-01  1.41874134087E-01
 133   3  37    1 H    -3.93441470809E-01  4.12292171187E-01  4.64684395104E-01
 134   3  38    1 H     4.47607776083E-01  1.41874134087E-01  3.53156048959E-02
 135   3  39    1 H     5.23922239169E-02  8.77078288128E-02 -3.05733641996E-01
 136   3  40    1 H    -1.06558529191E-01  3.58125865913E-01 -1.94266358004E-01
 137   3  41    1 H     4.12292171187E-01  4.64684395104E-01 -3.93441470809E-01
 138   3  42    1 H     4.64684395104E-01 -3.93441470809E-01  4.12292171187E-01
 139   3  43    1 H     3.58125865913E-01 -1.94266358004E-01 -1.06558529191E-01
 140   3  44    1 H     3.53156048959E-02  4.47607776083E-01  1.41874134087E-01
 141   3  45    1 H     1.41874134087E-01  3.53156048959E-02  4.47607776083E-01
 142   3  46    1 H    -3.05733641996E-01  5.23922239169E-02  8.77078288128E-02
 143   3  47    1 H     8.77078288128E-02 -3.05733641996E-01  5.23922239169E-02
 144   3  48    1 H    -1.94266358004E-01 -1.06558529191E-01  3.58125865913E-01

 NUMBER OF SYMMETRY OPERATORS         :   48
 *******************************************************************************
 * GEOMETRY EDITING - INPUT COORDINATES ARE GIVEN IN ANGSTROM         
 *******************************************************************************

 GEOMETRY NOW FULLY CONSISTENT WITH THE GROUP

 GCALCO - MAX INDICES DIRECT LATTICE VECTOR    14    14    14
 NO.OF VECTORS CREATED 6999 STARS  122 RMAX   288.82099 BOHR

 GEOMETRY FOR WAVE FUNCTION - DIMENSIONALITY OF THE SYSTEM    3
 (NON PERIODIC DIRECTION: LATTICE PARAMETER FORMALLY SET TO 500)
 *******************************************************************************
 LATTICE PARAMETERS (ANGSTROMS AND DEGREES) - BOHR = 0.5291772083 ANGSTROM
 PRIMITIVE CELL - CENTRING CODE 6/0 VOLUME=  2126.055637 - DENSITY  0.675 g/cm^3
         A              B              C           ALPHA      BETA       GAMMA 
    14.03025309    14.03025309    14.03025309   109.471221 109.471221 109.471221
 *******************************************************************************
 ATOMS IN THE ASYMMETRIC UNIT    3 - ATOMS IN THE UNIT CELL:  144
     ATOM                 X/A                 Y/B                 Z/C    
 *******************************************************************************
      1 T   8 O    -9.718626208554E-02  1.324643076825E-01  3.327081205140E-02
      2 F   8 O    -4.008065043689E-01 -1.304570741369E-01  4.667291879486E-01
      3 F   8 O    -4.028137379145E-01 -3.695429258631E-01  2.296505697680E-01
      4 F   8 O    -9.919349563106E-02  3.675356923175E-01  2.703494302320E-01
      5 F   8 O     3.327081205140E-02 -9.718626208554E-02  1.324643076825E-01
      6 F   8 O     1.324643076825E-01  3.327081205140E-02 -9.718626208554E-02
      7 F   8 O     2.703494302320E-01 -9.919349563106E-02  3.675356923175E-01
      8 F   8 O    -1.304570741369E-01  4.667291879486E-01 -4.008065043689E-01
      9 F   8 O     4.667291879486E-01 -4.008065043689E-01 -1.304570741369E-01
     10 F   8 O    -3.695429258631E-01  2.296505697680E-01 -4.028137379145E-01
     11 F   8 O     2.296505697680E-01 -4.028137379145E-01 -3.695429258631E-01
     12 F   8 O     3.675356923175E-01  2.703494302320E-01 -9.919349563106E-02
     13 F   8 O     3.675356923175E-01 -4.028137379145E-01  4.667291879486E-01
     14 F   8 O    -3.695429258631E-01 -9.919349563106E-02  3.327081205140E-02
     15 F   8 O    -1.304570741369E-01 -9.718626208554E-02  2.703494302320E-01
     16 F   8 O     1.324643076825E-01 -4.008065043689E-01  2.296505697680E-01
     17 F   8 O    -4.028137379145E-01  4.667291879486E-01  3.675356923175E-01
     18 F   8 O     4.667291879486E-01  3.675356923175E-01 -4.028137379145E-01
     19 F   8 O    -4.008065043689E-01  2.296505697680E-01  1.324643076825E-01
     20 F   8 O     3.327081205140E-02 -3.695429258631E-01 -9.919349563106E-02
     21 F   8 O    -9.919349563106E-02  3.327081205140E-02 -3.695429258631E-01
     22 F   8 O     2.703494302320E-01 -1.304570741369E-01 -9.718626208554E-02
     23 F   8 O    -9.718626208554E-02  2.703494302320E-01 -1.304570741369E-01
     24 F   8 O     2.296505697680E-01  1.324643076825E-01 -4.008065043689E-01
     25 F   8 O     9.718626208554E-02 -1.324643076825E-01 -3.327081205140E-02
     26 F   8 O     4.008065043689E-01  1.304570741369E-01 -4.667291879486E-01
     27 F   8 O     4.028137379145E-01  3.695429258631E-01 -2.296505697680E-01
     28 F   8 O     9.919349563106E-02 -3.675356923175E-01 -2.703494302320E-01
     29 F   8 O    -3.327081205140E-02  9.718626208554E-02 -1.324643076825E-01
     30 F   8 O    -1.324643076825E-01 -3.327081205140E-02  9.718626208554E-02
     31 F   8 O    -2.703494302320E-01  9.919349563106E-02 -3.675356923175E-01
     32 F   8 O     1.304570741369E-01 -4.667291879486E-01  4.008065043689E-01
     33 F   8 O    -4.667291879486E-01  4.008065043689E-01  1.304570741369E-01
     34 F   8 O     3.695429258631E-01 -2.296505697680E-01  4.028137379145E-01
     35 F   8 O    -2.296505697680E-01  4.028137379145E-01  3.695429258631E-01
     36 F   8 O    -3.675356923175E-01 -2.703494302320E-01  9.919349563106E-02
     37 F   8 O    -3.675356923175E-01  4.028137379145E-01 -4.667291879486E-01
     38 F   8 O     3.695429258631E-01  9.919349563106E-02 -3.327081205140E-02
     39 F   8 O     1.304570741369E-01  9.718626208554E-02 -2.703494302320E-01
     40 F   8 O    -1.324643076825E-01  4.008065043689E-01 -2.296505697680E-01
     41 F   8 O     4.028137379145E-01 -4.667291879486E-01 -3.675356923175E-01
     42 F   8 O    -4.667291879486E-01 -3.675356923175E-01  4.028137379145E-01
     43 F   8 O     4.008065043689E-01 -2.296505697680E-01 -1.324643076825E-01
     44 F   8 O    -3.327081205140E-02  3.695429258631E-01  9.919349563106E-02
     45 F   8 O     9.919349563106E-02 -3.327081205140E-02  3.695429258631E-01
     46 F   8 O    -2.703494302320E-01  1.304570741369E-01  9.718626208554E-02
     47 F   8 O     9.718626208554E-02 -2.703494302320E-01  1.304570741369E-01
     48 F   8 O    -2.296505697680E-01 -1.324643076825E-01  4.008065043689E-01
     49 T   1 H    -5.113041359326E-02  2.169927972297E-01  7.438911550366E-02
     50 F   1 H    -3.573963182740E-01 -1.255195290969E-01  4.256108844963E-01
     51 F   1 H    -4.488695864067E-01 -3.744804709031E-01  2.681232108229E-01
     52 F   1 H    -1.426036817260E-01  2.830072027703E-01  2.318767891771E-01
     53 F   1 H     7.438911550366E-02 -5.113041359326E-02  2.169927972297E-01
     54 F   1 H     2.169927972297E-01  7.438911550366E-02 -5.113041359326E-02
     55 F   1 H     2.318767891771E-01 -1.426036817260E-01  2.830072027703E-01
     56 F   1 H    -1.255195290969E-01  4.256108844963E-01 -3.573963182740E-01
     57 F   1 H     4.256108844963E-01 -3.573963182740E-01 -1.255195290969E-01
     58 F   1 H    -3.744804709031E-01  2.681232108229E-01 -4.488695864067E-01
     59 F   1 H     2.681232108229E-01 -4.488695864067E-01 -3.744804709031E-01
     60 F   1 H     2.830072027703E-01  2.318767891771E-01 -1.426036817260E-01
     61 F   1 H     2.830072027703E-01 -4.488695864067E-01  4.256108844963E-01
     62 F   1 H    -3.744804709031E-01 -1.426036817260E-01  7.438911550366E-02
     63 F   1 H    -1.255195290969E-01 -5.113041359326E-02  2.318767891771E-01
     64 F   1 H     2.169927972297E-01 -3.573963182740E-01  2.681232108229E-01
     65 F   1 H    -4.488695864067E-01  4.256108844963E-01  2.830072027703E-01
     66 F   1 H     4.256108844963E-01  2.830072027703E-01 -4.488695864067E-01
     67 F   1 H    -3.573963182740E-01  2.681232108229E-01  2.169927972297E-01
     68 F   1 H     7.438911550366E-02 -3.744804709031E-01 -1.426036817260E-01
     69 F   1 H    -1.426036817260E-01  7.438911550366E-02 -3.744804709031E-01
     70 F   1 H     2.318767891771E-01 -1.255195290969E-01 -5.113041359326E-02
     71 F   1 H    -5.113041359326E-02  2.318767891771E-01 -1.255195290969E-01
     72 F   1 H     2.681232108229E-01  2.169927972297E-01 -3.573963182740E-01
     73 F   1 H     5.113041359326E-02 -2.169927972297E-01 -7.438911550366E-02
     74 F   1 H     3.573963182740E-01  1.255195290969E-01 -4.256108844963E-01
     75 F   1 H     4.488695864067E-01  3.744804709031E-01 -2.681232108229E-01
     76 F   1 H     1.426036817260E-01 -2.830072027703E-01 -2.318767891771E-01
     77 F   1 H    -7.438911550366E-02  5.113041359326E-02 -2.169927972297E-01
     78 F   1 H    -2.169927972297E-01 -7.438911550366E-02  5.113041359326E-02
     79 F   1 H    -2.318767891771E-01  1.426036817260E-01 -2.830072027703E-01
     80 F   1 H     1.255195290969E-01 -4.256108844963E-01  3.573963182740E-01
     81 F   1 H    -4.256108844963E-01  3.573963182740E-01  1.255195290969E-01
     82 F   1 H     3.744804709031E-01 -2.681232108229E-01  4.488695864067E-01
     83 F   1 H    -2.681232108229E-01  4.488695864067E-01  3.744804709031E-01
     84 F   1 H    -2.830072027703E-01 -2.318767891771E-01  1.426036817260E-01
     85 F   1 H    -2.830072027703E-01  4.488695864067E-01 -4.256108844963E-01
     86 F   1 H     3.744804709031E-01  1.426036817260E-01 -7.438911550366E-02
     87 F   1 H     1.255195290969E-01  5.113041359326E-02 -2.318767891771E-01
     88 F   1 H    -2.169927972297E-01  3.573963182740E-01 -2.681232108229E-01
     89 F   1 H     4.488695864067E-01 -4.256108844963E-01 -2.830072027703E-01
     90 F   1 H    -4.256108844963E-01 -2.830072027703E-01  4.488695864067E-01
     91 F   1 H     3.573963182740E-01 -2.681232108229E-01 -2.169927972297E-01
     92 F   1 H    -7.438911550366E-02  3.744804709031E-01  1.426036817260E-01
     93 F   1 H     1.426036817260E-01 -7.438911550366E-02  3.744804709031E-01
     94 F   1 H    -2.318767891771E-01  1.255195290969E-01  5.113041359326E-02
     95 F   1 H     5.113041359326E-02 -2.318767891771E-01  1.255195290969E-01
     96 F   1 H    -2.681232108229E-01 -2.169927972297E-01  3.573963182740E-01
     97 T   1 H    -8.770782881283E-02  1.065585291911E-01 -3.531560489589E-02
     98 F   1 H    -3.581258659130E-01 -5.239222391694E-02 -4.646843951041E-01
     99 F   1 H    -4.122921711872E-01 -4.476077760831E-01  1.942663580039E-01
    100 F   1 H    -1.418741340870E-01  3.934414708089E-01  3.057336419961E-01
    101 F   1 H    -3.531560489589E-02 -8.770782881283E-02  1.065585291911E-01
    102 F   1 H     1.065585291911E-01 -3.531560489589E-02 -8.770782881283E-02
    103 F   1 H     3.057336419961E-01 -1.418741340870E-01  3.934414708089E-01
    104 F   1 H    -5.239222391694E-02 -4.646843951041E-01 -3.581258659130E-01
    105 F   1 H    -4.646843951041E-01 -3.581258659130E-01 -5.239222391694E-02
    106 F   1 H    -4.476077760831E-01  1.942663580039E-01 -4.122921711872E-01
    107 F   1 H     1.942663580039E-01 -4.122921711872E-01 -4.476077760831E-01
    108 F   1 H     3.934414708089E-01  3.057336419961E-01 -1.418741340870E-01
    109 F   1 H     3.934414708089E-01 -4.122921711872E-01 -4.646843951041E-01
    110 F   1 H    -4.476077760831E-01 -1.418741340870E-01 -3.531560489589E-02
    111 F   1 H    -5.239222391694E-02 -8.770782881283E-02  3.057336419961E-01
    112 F   1 H     1.065585291911E-01 -3.581258659130E-01  1.942663580039E-01
    113 F   1 H    -4.122921711872E-01 -4.646843951041E-01  3.934414708089E-01
    114 F   1 H    -4.646843951041E-01  3.934414708089E-01 -4.122921711872E-01
    115 F   1 H    -3.581258659130E-01  1.942663580039E-01  1.065585291911E-01
    116 F   1 H    -3.531560489589E-02 -4.476077760831E-01 -1.418741340870E-01
    117 F   1 H    -1.418741340870E-01 -3.531560489589E-02 -4.476077760831E-01
    118 F   1 H     3.057336419961E-01 -5.239222391694E-02 -8.770782881283E-02
    119 F   1 H    -8.770782881283E-02  3.057336419961E-01 -5.239222391694E-02
    120 F   1 H     1.942663580039E-01  1.065585291911E-01 -3.581258659130E-01
    121 F   1 H     8.770782881283E-02 -1.065585291911E-01  3.531560489589E-02
    122 F   1 H     3.581258659130E-01  5.239222391694E-02  4.646843951041E-01
    123 F   1 H     4.122921711872E-01  4.476077760831E-01 -1.942663580039E-01
    124 F   1 H     1.418741340870E-01 -3.934414708089E-01 -3.057336419961E-01
    125 F   1 H     3.531560489589E-02  8.770782881283E-02 -1.065585291911E-01
    126 F   1 H    -1.065585291911E-01  3.531560489589E-02  8.770782881283E-02
    127 F   1 H    -3.057336419961E-01  1.418741340870E-01 -3.934414708089E-01
    128 F   1 H     5.239222391694E-02  4.646843951041E-01  3.581258659130E-01
    129 F   1 H     4.646843951041E-01  3.581258659130E-01  5.239222391694E-02
    130 F   1 H     4.476077760831E-01 -1.942663580039E-01  4.122921711872E-01
    131 F   1 H    -1.942663580039E-01  4.122921711872E-01  4.476077760831E-01
    132 F   1 H    -3.934414708089E-01 -3.057336419961E-01  1.418741340870E-01
    133 F   1 H    -3.934414708089E-01  4.122921711872E-01  4.646843951041E-01
    134 F   1 H     4.476077760831E-01  1.418741340870E-01  3.531560489589E-02
    135 F   1 H     5.239222391694E-02  8.770782881283E-02 -3.057336419961E-01
    136 F   1 H    -1.065585291911E-01  3.581258659130E-01 -1.942663580039E-01
    137 F   1 H     4.122921711872E-01  4.646843951041E-01 -3.934414708089E-01
    138 F   1 H     4.646843951041E-01 -3.934414708089E-01  4.122921711872E-01
    139 F   1 H     3.581258659130E-01 -1.942663580039E-01 -1.065585291911E-01
    140 F   1 H     3.531560489589E-02  4.476077760831E-01  1.418741340870E-01
    141 F   1 H     1.418741340870E-01  3.531560489589E-02  4.476077760831E-01
    142 F   1 H    -3.057336419961E-01  5.239222391694E-02  8.770782881283E-02
    143 F   1 H     8.770782881283E-02 -3.057336419961E-01  5.239222391694E-02
    144 F   1 H    -1.942663580039E-01 -1.065585291911E-01  3.581258659130E-01

 TRANSFORMATION MATRIX PRIMITIVE-CRYSTALLOGRAPHIC CELL
  0.0000  1.0000  1.0000  1.0000  0.0000  1.0000  1.0000  1.0000  0.0000

 *******************************************************************************
 CRYSTALLOGRAPHIC CELL (VOLUME=       4252.11127333)
         A              B              C           ALPHA      BETA       GAMMA 
    16.20074080    16.20074080    16.20074080    90.000000  90.000000  90.000000

 COORDINATES IN THE CRYSTALLOGRAPHIC CELL
     ATOM                 X/A                 Y/B                 Z/C    
 *******************************************************************************
      1 T   8 O     1.314606909097E-01 -9.818987885830E-02  1.003616772763E-03
      2 F   8 O    -1.314606909097E-01 -4.018101211417E-01  1.003616772763E-03
      3 F   8 O     1.314606909097E-01  9.818987885830E-02  4.989963832272E-01
      4 F   8 O     3.685393090903E-01 -9.818987885830E-02 -1.003616772763E-03
      5 F   8 O     1.003616772763E-03  1.314606909097E-01 -9.818987885830E-02
      6 F   8 O    -9.818987885830E-02  1.003616772763E-03  1.314606909097E-01
      7 F   8 O    -1.003616772763E-03  3.685393090903E-01 -9.818987885830E-02
      8 F   8 O    -4.018101211417E-01  1.003616772763E-03 -1.314606909097E-01
      9 F   8 O     1.003616772763E-03 -1.314606909097E-01 -4.018101211417E-01
     10 F   8 O     9.818987885830E-02  4.989963832272E-01  1.314606909097E-01
     11 F   8 O     4.989963832272E-01  1.314606909097E-01  9.818987885830E-02
     12 F   8 O    -9.818987885830E-02 -1.003616772763E-03  3.685393090903E-01
     13 F   8 O     3.481898788583E-01  1.185393090903E-01  2.489963832272E-01
     14 F   8 O     1.518101211417E-01 -1.185393090903E-01 -2.510036167728E-01
     15 F   8 O     1.518101211417E-01  1.185393090903E-01 -2.489963832272E-01
     16 F   8 O     3.481898788583E-01 -1.185393090903E-01  2.510036167728E-01
     17 F   8 O     1.185393090903E-01  2.489963832272E-01  3.481898788583E-01
     18 F   8 O     2.489963832272E-01  3.481898788583E-01  1.185393090903E-01
     19 F   8 O    -1.185393090903E-01  2.510036167728E-01  3.481898788583E-01
     20 F   8 O    -2.510036167728E-01  1.518101211417E-01 -1.185393090903E-01
     21 F   8 O    -1.185393090903E-01 -2.510036167728E-01  1.518101211417E-01
     22 F   8 O    -2.489963832272E-01  1.518101211417E-01  1.185393090903E-01
     23 F   8 O     1.185393090903E-01 -2.489963832272E-01  1.518101211417E-01
     24 F   8 O     2.510036167728E-01  3.481898788583E-01 -1.185393090903E-01
     25 F   8 O    -1.314606909097E-01  9.818987885830E-02 -1.003616772763E-03
     26 F   8 O     1.314606909097E-01  4.018101211417E-01 -1.003616772763E-03
     27 F   8 O    -1.314606909097E-01 -9.818987885830E-02 -4.989963832272E-01
     28 F   8 O    -3.685393090903E-01  9.818987885830E-02  1.003616772763E-03
     29 F   8 O    -1.003616772763E-03 -1.314606909097E-01  9.818987885830E-02
     30 F   8 O     9.818987885830E-02 -1.003616772763E-03 -1.314606909097E-01
     31 F   8 O     1.003616772763E-03 -3.685393090903E-01  9.818987885830E-02
     32 F   8 O     4.018101211417E-01 -1.003616772763E-03  1.314606909097E-01
     33 F   8 O    -1.003616772763E-03  1.314606909097E-01  4.018101211417E-01
     34 F   8 O    -9.818987885830E-02 -4.989963832272E-01 -1.314606909097E-01
     35 F   8 O    -4.989963832272E-01 -1.314606909097E-01 -9.818987885830E-02
     36 F   8 O     9.818987885830E-02  1.003616772763E-03 -3.685393090903E-01
     37 F   8 O    -3.481898788583E-01 -1.185393090903E-01 -2.489963832272E-01
     38 F   8 O    -1.518101211417E-01  1.185393090903E-01  2.510036167728E-01
     39 F   8 O    -1.518101211417E-01 -1.185393090903E-01  2.489963832272E-01
     40 F   8 O    -3.481898788583E-01  1.185393090903E-01 -2.510036167728E-01
     41 F   8 O    -1.185393090903E-01 -2.489963832272E-01 -3.481898788583E-01
     42 F   8 O    -2.489963832272E-01 -3.481898788583E-01 -1.185393090903E-01
     43 F   8 O     1.185393090903E-01 -2.510036167728E-01 -3.481898788583E-01
     44 F   8 O     2.510036167728E-01 -1.518101211417E-01  1.185393090903E-01
     45 F   8 O     1.185393090903E-01  2.510036167728E-01 -1.518101211417E-01
     46 F   8 O     2.489963832272E-01 -1.518101211417E-01 -1.185393090903E-01
     47 F   8 O    -1.185393090903E-01  2.489963832272E-01 -1.518101211417E-01
     48 F   8 O    -2.510036167728E-01 -3.481898788583E-01  1.185393090903E-01
     49 T   1 H     1.712561631633E-01 -9.686704765964E-02  4.573663406638E-02
     50 F   1 H    -1.712561631633E-01 -4.031329523404E-01  4.573663406638E-02
     51 F   1 H     1.712561631633E-01  9.686704765964E-02  4.542633659336E-01
     52 F   1 H     3.287438368367E-01 -9.686704765964E-02 -4.573663406638E-02
     53 F   1 H     4.573663406638E-02  1.712561631633E-01 -9.686704765964E-02
     54 F   1 H    -9.686704765964E-02  4.573663406638E-02  1.712561631633E-01
     55 F   1 H    -4.573663406638E-02  3.287438368367E-01 -9.686704765964E-02
     56 F   1 H    -4.031329523404E-01  4.573663406638E-02 -1.712561631633E-01
     57 F   1 H     4.573663406638E-02 -1.712561631633E-01 -4.031329523404E-01
     58 F   1 H     9.686704765964E-02  4.542633659336E-01  1.712561631633E-01
     59 F   1 H     4.542633659336E-01  1.712561631633E-01  9.686704765964E-02
     60 F   1 H    -9.686704765964E-02 -4.573663406638E-02  3.287438368367E-01
     61 F   1 H     3.468670476596E-01  7.874383683670E-02  2.042633659336E-01
     62 F   1 H     1.531329523404E-01 -7.874383683670E-02 -2.957366340664E-01
     63 F   1 H     1.531329523404E-01  7.874383683670E-02 -2.042633659336E-01
     64 F   1 H     3.468670476596E-01 -7.874383683670E-02  2.957366340664E-01
     65 F   1 H     7.874383683670E-02  2.042633659336E-01  3.468670476596E-01
     66 F   1 H     2.042633659336E-01  3.468670476596E-01  7.874383683670E-02
     67 F   1 H    -7.874383683670E-02  2.957366340664E-01  3.468670476596E-01
     68 F   1 H    -2.957366340664E-01  1.531329523404E-01 -7.874383683670E-02
     69 F   1 H    -7.874383683670E-02 -2.957366340664E-01  1.531329523404E-01
     70 F   1 H    -2.042633659336E-01  1.531329523404E-01  7.874383683670E-02
     71 F   1 H     7.874383683670E-02 -2.042633659336E-01  1.531329523404E-01
     72 F   1 H     2.957366340664E-01  3.468670476596E-01 -7.874383683670E-02
     73 F   1 H    -1.712561631633E-01  9.686704765964E-02 -4.573663406638E-02
     74 F   1 H     1.712561631633E-01  4.031329523404E-01 -4.573663406638E-02
     75 F   1 H    -1.712561631633E-01 -9.686704765964E-02 -4.542633659336E-01
     76 F   1 H    -3.287438368367E-01  9.686704765964E-02  4.573663406638E-02
     77 F   1 H    -4.573663406638E-02 -1.712561631633E-01  9.686704765964E-02
     78 F   1 H     9.686704765964E-02 -4.573663406638E-02 -1.712561631633E-01
     79 F   1 H     4.573663406638E-02 -3.287438368367E-01  9.686704765964E-02
     80 F   1 H     4.031329523404E-01 -4.573663406638E-02  1.712561631633E-01
     81 F   1 H    -4.573663406638E-02  1.712561631633E-01  4.031329523404E-01
     82 F   1 H    -9.686704765964E-02 -4.542633659336E-01 -1.712561631633E-01
     83 F   1 H    -4.542633659336E-01 -1.712561631633E-01 -9.686704765964E-02
     84 F   1 H     9.686704765964E-02  4.573663406638E-02 -3.287438368367E-01
     85 F   1 H    -3.468670476596E-01 -7.874383683670E-02 -2.042633659336E-01
     86 F   1 H    -1.531329523404E-01  7.874383683670E-02  2.957366340664E-01
     87 F   1 H    -1.531329523404E-01 -7.874383683670E-02  2.042633659336E-01
     88 F   1 H    -3.468670476596E-01  7.874383683670E-02 -2.957366340664E-01
     89 F   1 H    -7.874383683670E-02 -2.042633659336E-01 -3.468670476596E-01
     90 F   1 H    -2.042633659336E-01 -3.468670476596E-01 -7.874383683670E-02
     91 F   1 H     7.874383683670E-02 -2.957366340664E-01 -3.468670476596E-01
     92 F   1 H     2.957366340664E-01 -1.531329523404E-01  7.874383683670E-02
     93 F   1 H     7.874383683670E-02  2.957366340664E-01 -1.531329523404E-01
     94 F   1 H     2.042633659336E-01 -1.531329523404E-01 -7.874383683670E-02
     95 F   1 H    -7.874383683670E-02  2.042633659336E-01 -1.531329523404E-01
     96 F   1 H    -2.957366340664E-01 -3.468670476596E-01  7.874383683670E-02
     97 T   1 H     7.947537655401E-02 -1.147909814499E-01  2.708315263707E-02
     98 F   1 H    -7.947537655401E-02 -3.852090185501E-01  2.708315263707E-02
     99 F   1 H     7.947537655401E-02  1.147909814499E-01  4.729168473629E-01
    100 F   1 H     4.205246234460E-01 -1.147909814499E-01 -2.708315263707E-02
    101 F   1 H     2.708315263707E-02  7.947537655401E-02 -1.147909814499E-01
    102 F   1 H    -1.147909814499E-01  2.708315263707E-02  7.947537655401E-02
    103 F   1 H    -2.708315263707E-02  4.205246234460E-01 -1.147909814499E-01
    104 F   1 H    -3.852090185501E-01  2.708315263707E-02 -7.947537655401E-02
    105 F   1 H     2.708315263707E-02 -7.947537655401E-02 -3.852090185501E-01
    106 F   1 H     1.147909814499E-01  4.729168473629E-01  7.947537655401E-02
    107 F   1 H     4.729168473629E-01  7.947537655401E-02  1.147909814499E-01
    108 F   1 H    -1.147909814499E-01 -2.708315263707E-02  4.205246234460E-01
    109 F   1 H    -1.352090185501E-01 -3.294753765540E-01 -2.770831526371E-01
    110 F   1 H     1.352090185501E-01 -1.705246234460E-01 -2.770831526371E-01
    111 F   1 H     1.352090185501E-01  1.705246234460E-01 -2.229168473629E-01
    112 F   1 H    -1.352090185501E-01  3.294753765540E-01 -2.229168473629E-01
    113 F   1 H    -3.294753765540E-01 -2.770831526371E-01 -1.352090185501E-01
    114 F   1 H    -2.770831526371E-01 -1.352090185501E-01 -3.294753765540E-01
    115 F   1 H     3.294753765540E-01 -2.229168473629E-01 -1.352090185501E-01
    116 F   1 H    -2.770831526371E-01  1.352090185501E-01 -1.705246234460E-01
    117 F   1 H    -1.705246234460E-01 -2.770831526371E-01  1.352090185501E-01
    118 F   1 H    -2.229168473629E-01  1.352090185501E-01  1.705246234460E-01
    119 F   1 H     1.705246234460E-01 -2.229168473629E-01  1.352090185501E-01
    120 F   1 H    -2.229168473629E-01 -1.352090185501E-01  3.294753765540E-01
    121 F   1 H    -7.947537655401E-02  1.147909814499E-01 -2.708315263707E-02
    122 F   1 H     7.947537655401E-02  3.852090185501E-01 -2.708315263707E-02
    123 F   1 H    -7.947537655401E-02 -1.147909814499E-01 -4.729168473629E-01
    124 F   1 H    -4.205246234460E-01  1.147909814499E-01  2.708315263707E-02
    125 F   1 H    -2.708315263707E-02 -7.947537655401E-02  1.147909814499E-01
    126 F   1 H     1.147909814499E-01 -2.708315263707E-02 -7.947537655401E-02
    127 F   1 H     2.708315263707E-02 -4.205246234460E-01  1.147909814499E-01
    128 F   1 H     3.852090185501E-01 -2.708315263707E-02  7.947537655401E-02
    129 F   1 H    -2.708315263707E-02  7.947537655401E-02  3.852090185501E-01
    130 F   1 H    -1.147909814499E-01 -4.729168473629E-01 -7.947537655401E-02
    131 F   1 H    -4.729168473629E-01 -7.947537655401E-02 -1.147909814499E-01
    132 F   1 H     1.147909814499E-01  2.708315263707E-02 -4.205246234460E-01
    133 F   1 H     1.352090185501E-01  3.294753765540E-01  2.770831526371E-01
    134 F   1 H    -1.352090185501E-01  1.705246234460E-01  2.770831526371E-01
    135 F   1 H    -1.352090185501E-01 -1.705246234460E-01  2.229168473629E-01
    136 F   1 H     1.352090185501E-01 -3.294753765540E-01  2.229168473629E-01
    137 F   1 H     3.294753765540E-01  2.770831526371E-01  1.352090185501E-01
    138 F   1 H     2.770831526371E-01  1.352090185501E-01  3.294753765540E-01
    139 F   1 H    -3.294753765540E-01  2.229168473629E-01  1.352090185501E-01
    140 F   1 H     2.770831526371E-01 -1.352090185501E-01  1.705246234460E-01
    141 F   1 H     1.705246234460E-01  2.770831526371E-01 -1.352090185501E-01
    142 F   1 H     2.229168473629E-01 -1.352090185501E-01 -1.705246234460E-01
    143 F   1 H    -1.705246234460E-01  2.229168473629E-01 -1.352090185501E-01
    144 F   1 H     2.229168473629E-01  1.352090185501E-01 -3.294753765540E-01

 T = ATOM BELONGING TO THE ASYMMETRIC UNIT

 ****   48 SYMMOPS - TRANSLATORS IN FRACTIONAL UNITS
 **** MATRICES AND TRANSLATORS IN THE CRYSTALLOGRAPHIC REFERENCE FRAME
   V INV                    ROTATION MATRICES                   TRANSLATORS
   1   1  1.00  0.00  0.00  0.00  1.00  0.00  0.00  0.00  1.00  0.00  0.00  0.00
   2   2  0.00  1.00 -1.00  1.00  0.00 -1.00  0.00  0.00 -1.00  0.50  0.00  0.50
   3   3 -1.00  0.00  0.00 -1.00  0.00  1.00 -1.00  1.00  0.00  0.50  0.50  0.00
   4   4  0.00 -1.00  1.00  0.00 -1.00  0.00  1.00 -1.00  0.00  0.00  0.50  0.50
   5   6  0.00  0.00  1.00  1.00  0.00  0.00  0.00  1.00  0.00  0.00  0.00  0.00
   6   5  0.00  1.00  0.00  0.00  0.00  1.00  1.00  0.00  0.00  0.00  0.00  0.00
   7   8  1.00 -1.00  0.00  0.00 -1.00  1.00  0.00 -1.00  0.00  0.50  0.00  0.50
   8   7  1.00  0.00 -1.00  0.00  0.00 -1.00  0.00  1.00 -1.00  0.00  0.50  0.50
   9  10  0.00  0.00 -1.00  0.00  1.00 -1.00  1.00  0.00 -1.00  0.50  0.50  0.00
  10   9 -1.00  0.00  1.00 -1.00  1.00  0.00 -1.00  0.00  0.00  0.50  0.00  0.50
  11  12 -1.00  1.00  0.00 -1.00  0.00  0.00 -1.00  0.00  1.00  0.00  0.50  0.50
  12  11  0.00 -1.00  0.00  1.00 -1.00  0.00  0.00 -1.00  1.00  0.50  0.50  0.00
  13  13  0.00 -1.00  0.00 -1.00  0.00  0.00  0.00  0.00 -1.00  0.50  0.50  0.50
  14  14 -1.00  0.00  1.00  0.00 -1.00  1.00  0.00  0.00  1.00  0.50  1.00  1.00
  15  16  1.00  0.00 -1.00  1.00  0.00  0.00  1.00 -1.00  0.00  1.00  1.00  0.50
  16  15  0.00  1.00  0.00  0.00  1.00 -1.00 -1.00  1.00  0.00  1.00  0.50  1.00
  17  17 -1.00  0.00  0.00  0.00  0.00 -1.00  0.00 -1.00  0.00  0.50  0.50  0.50
  18  18  0.00  0.00 -1.00  0.00 -1.00  0.00 -1.00  0.00  0.00  0.50  0.50  0.50
  19  21  0.00  1.00 -1.00 -1.00  1.00  0.00  0.00  1.00  0.00  0.50  1.00  1.00
  20  22  0.00  0.00  1.00 -1.00  0.00  1.00  0.00 -1.00  1.00  1.00  0.50  1.00
  21  19  0.00 -1.00  1.00  0.00  0.00  1.00 -1.00  0.00  1.00  1.00  1.00  0.50
  22  20  1.00 -1.00  0.00  1.00  0.00 -1.00  1.00  0.00  0.00  0.50  1.00  1.00
  23  23  1.00  0.00  0.00  1.00 -1.00  0.00  1.00  0.00 -1.00  1.00  0.50  1.00
  24  24 -1.00  1.00  0.00  0.00  1.00  0.00  0.00  1.00 -1.00  1.00  1.00  0.50
  25  25 -1.00  0.00  0.00  0.00 -1.00  0.00  0.00  0.00 -1.00  0.00  0.00  0.00
  26  26  0.00 -1.00  1.00 -1.00  0.00  1.00  0.00  0.00  1.00  0.50  0.00  0.50
  27  27  1.00  0.00  0.00  1.00  0.00 -1.00  1.00 -1.00  0.00  0.50  0.50  0.00
  28  28  0.00  1.00 -1.00  0.00  1.00  0.00 -1.00  1.00  0.00  0.00  0.50  0.50
  29  30  0.00  0.00 -1.00 -1.00  0.00  0.00  0.00 -1.00  0.00  0.00  0.00  0.00
  30  29  0.00 -1.00  0.00  0.00  0.00 -1.00 -1.00  0.00  0.00  0.00  0.00  0.00
  31  32 -1.00  1.00  0.00  0.00  1.00 -1.00  0.00  1.00  0.00  0.50  0.00  0.50
  32  31 -1.00  0.00  1.00  0.00  0.00  1.00  0.00 -1.00  1.00  0.00  0.50  0.50
  33  34  0.00  0.00  1.00  0.00 -1.00  1.00 -1.00  0.00  1.00  0.50  0.50  0.00
  34  33  1.00  0.00 -1.00  1.00 -1.00  0.00  1.00  0.00  0.00  0.50  0.00  0.50
  35  36  1.00 -1.00  0.00  1.00  0.00  0.00  1.00  0.00 -1.00  0.00  0.50  0.50
  36  35  0.00  1.00  0.00 -1.00  1.00  0.00  0.00  1.00 -1.00  0.50  0.50  0.00
  37  37  0.00  1.00  0.00  1.00  0.00  0.00  0.00  0.00  1.00  0.50  0.50  0.50
  38  38  1.00  0.00 -1.00  0.00  1.00 -1.00  0.00  0.00 -1.00  0.50  1.00  1.00
  39  40 -1.00  0.00  1.00 -1.00  0.00  0.00 -1.00  1.00  0.00  1.00  1.00  0.50
  40  39  0.00 -1.00  0.00  0.00 -1.00  1.00  1.00 -1.00  0.00  1.00  0.50  1.00
  41  41  1.00  0.00  0.00  0.00  0.00  1.00  0.00  1.00  0.00  0.50  0.50  0.50
  42  42  0.00  0.00  1.00  0.00  1.00  0.00  1.00  0.00  0.00  0.50  0.50  0.50
  43  45  0.00 -1.00  1.00  1.00 -1.00  0.00  0.00 -1.00  0.00  0.50  1.00  1.00
  44  46  0.00  0.00 -1.00  1.00  0.00 -1.00  0.00  1.00 -1.00  1.00  0.50  1.00
  45  43  0.00  1.00 -1.00  0.00  0.00 -1.00  1.00  0.00 -1.00  1.00  1.00  0.50
  46  44 -1.00  1.00  0.00 -1.00  0.00  1.00 -1.00  0.00  0.00  0.50  1.00  1.00
  47  47 -1.00  0.00  0.00 -1.00  1.00  0.00 -1.00  0.00  1.00  1.00  0.50  1.00
  48  48  1.00 -1.00  0.00  0.00 -1.00  0.00  0.00 -1.00  1.00  1.00  1.00  0.50

 DIRECT LATTICE VECTORS CARTESIAN COMPONENTS (ANGSTROM)
          X                    Y                    Z
  -0.810037040000E+01   0.810037040000E+01   0.810037040000E+01
   0.810037040000E+01  -0.810037040000E+01   0.810037040000E+01
   0.810037040000E+01   0.810037040000E+01  -0.810037040000E+01


 CARTESIAN COORDINATES - PRIMITIVE CELL
 *******************************************************************************
 *      ATOM          X(ANGSTROM)         Y(ANGSTROM)         Z(ANGSTROM)
 *******************************************************************************
    1     8 O     2.129760578817E+00 -1.590748776567E+00  1.625933519807E-02
    2     8 O    -2.129760578817E+00 -6.509621623433E+00  1.625933519807E-02
    3     8 O     2.129760578817E+00  1.590748776567E+00  8.084111064802E+00
    4     8 O     5.970609821183E+00 -1.590748776567E+00 -1.625933519806E-02
    5     8 O     1.625933519807E-02  2.129760578817E+00 -1.590748776567E+00
    6     8 O    -1.590748776567E+00  1.625933519807E-02  2.129760578817E+00
    7     8 O    -1.625933519806E-02  5.970609821183E+00 -1.590748776567E+00
    8     8 O    -6.509621623433E+00  1.625933519807E-02 -2.129760578817E+00
    9     8 O     1.625933519807E-02 -2.129760578817E+00 -6.509621623433E+00
   10     8 O     1.590748776567E+00  8.084111064802E+00  2.129760578817E+00
   11     8 O     8.084111064802E+00  2.129760578817E+00  1.590748776567E+00
   12     8 O    -1.590748776567E+00 -1.625933519806E-02  5.970609821183E+00
   13     8 O     5.640933976567E+00  1.920424621183E+00  4.033925864802E+00
   14     8 O     2.459436423433E+00 -1.920424621183E+00 -4.066444535198E+00
   15     8 O     2.459436423433E+00  1.920424621183E+00 -4.033925864802E+00
   16     8 O     5.640933976567E+00 -1.920424621183E+00  4.066444535198E+00
   17     8 O     1.920424621183E+00  4.033925864802E+00  5.640933976567E+00
   18     8 O     4.033925864802E+00  5.640933976567E+00  1.920424621183E+00
   19     8 O    -1.920424621183E+00  4.066444535198E+00  5.640933976567E+00
   20     8 O    -4.066444535198E+00  2.459436423433E+00 -1.920424621183E+00
   21     8 O    -1.920424621183E+00 -4.066444535198E+00  2.459436423433E+00
   22     8 O    -4.033925864802E+00  2.459436423433E+00  1.920424621183E+00
   23     8 O     1.920424621183E+00 -4.033925864802E+00  2.459436423433E+00
   24     8 O     4.066444535198E+00  5.640933976567E+00 -1.920424621183E+00
   25     8 O    -2.129760578817E+00  1.590748776567E+00 -1.625933519807E-02
   26     8 O     2.129760578817E+00  6.509621623433E+00 -1.625933519806E-02
   27     8 O    -2.129760578817E+00 -1.590748776567E+00 -8.084111064802E+00
   28     8 O    -5.970609821183E+00  1.590748776567E+00  1.625933519806E-02
   29     8 O    -1.625933519807E-02 -2.129760578817E+00  1.590748776567E+00
   30     8 O     1.590748776567E+00 -1.625933519807E-02 -2.129760578817E+00
   31     8 O     1.625933519806E-02 -5.970609821183E+00  1.590748776567E+00
   32     8 O     6.509621623433E+00 -1.625933519807E-02  2.129760578817E+00
   33     8 O    -1.625933519807E-02  2.129760578817E+00  6.509621623433E+00
   34     8 O    -1.590748776567E+00 -8.084111064802E+00 -2.129760578817E+00
   35     8 O    -8.084111064802E+00 -2.129760578817E+00 -1.590748776567E+00
   36     8 O     1.590748776567E+00  1.625933519806E-02 -5.970609821183E+00
   37     8 O    -5.640933976567E+00 -1.920424621183E+00 -4.033925864802E+00
   38     8 O    -2.459436423433E+00  1.920424621183E+00  4.066444535198E+00
   39     8 O    -2.459436423433E+00 -1.920424621183E+00  4.033925864802E+00
   40     8 O    -5.640933976567E+00  1.920424621183E+00 -4.066444535198E+00
   41     8 O    -1.920424621183E+00 -4.033925864802E+00 -5.640933976567E+00
   42     8 O    -4.033925864802E+00 -5.640933976567E+00 -1.920424621183E+00
   43     8 O     1.920424621183E+00 -4.066444535198E+00 -5.640933976567E+00
   44     8 O     4.066444535198E+00 -2.459436423433E+00  1.920424621183E+00
   45     8 O     1.920424621183E+00  4.066444535198E+00 -2.459436423433E+00
   46     8 O     4.033925864802E+00 -2.459436423433E+00 -1.920424621183E+00
   47     8 O    -1.920424621183E+00  4.033925864802E+00 -2.459436423433E+00
   48     8 O    -4.066444535198E+00 -5.640933976567E+00  1.920424621183E+00
   49     1 H     2.774476709811E+00 -1.569317931195E+00  7.409673535739E-01
   50     1 H    -2.774476709811E+00 -6.531052468805E+00  7.409673535739E-01
   51     1 H     2.774476709811E+00  1.569317931195E+00  7.359403046426E+00
   52     1 H     5.325893690189E+00 -1.569317931195E+00 -7.409673535739E-01
   53     1 H     7.409673535739E-01  2.774476709811E+00 -1.569317931195E+00
   54     1 H    -1.569317931195E+00  7.409673535739E-01  2.774476709811E+00
   55     1 H    -7.409673535739E-01  5.325893690189E+00 -1.569317931195E+00
   56     1 H    -6.531052468805E+00  7.409673535739E-01 -2.774476709811E+00
   57     1 H     7.409673535739E-01 -2.774476709811E+00 -6.531052468805E+00
   58     1 H     1.569317931195E+00  7.359403046426E+00  2.774476709811E+00
   59     1 H     7.359403046426E+00  2.774476709811E+00  1.569317931195E+00
   60     1 H    -1.569317931195E+00 -7.409673535739E-01  5.325893690189E+00
   61     1 H     5.619503131195E+00  1.275708490189E+00  3.309217846426E+00
   62     1 H     2.480867268805E+00 -1.275708490189E+00 -4.791152553574E+00
   63     1 H     2.480867268805E+00  1.275708490189E+00 -3.309217846426E+00
   64     1 H     5.619503131195E+00 -1.275708490189E+00  4.791152553574E+00
   65     1 H     1.275708490189E+00  3.309217846426E+00  5.619503131195E+00
   66     1 H     3.309217846426E+00  5.619503131195E+00  1.275708490189E+00
   67     1 H    -1.275708490189E+00  4.791152553574E+00  5.619503131195E+00
   68     1 H    -4.791152553574E+00  2.480867268805E+00 -1.275708490189E+00
   69     1 H    -1.275708490189E+00 -4.791152553574E+00  2.480867268805E+00
   70     1 H    -3.309217846426E+00  2.480867268805E+00  1.275708490189E+00
   71     1 H     1.275708490189E+00 -3.309217846426E+00  2.480867268805E+00
   72     1 H     4.791152553574E+00  5.619503131195E+00 -1.275708490189E+00
   73     1 H    -2.774476709811E+00  1.569317931195E+00 -7.409673535739E-01
   74     1 H     2.774476709811E+00  6.531052468805E+00 -7.409673535739E-01
   75     1 H    -2.774476709811E+00 -1.569317931195E+00 -7.359403046426E+00
   76     1 H    -5.325893690189E+00  1.569317931195E+00  7.409673535739E-01
   77     1 H    -7.409673535739E-01 -2.774476709811E+00  1.569317931195E+00
   78     1 H     1.569317931195E+00 -7.409673535739E-01 -2.774476709811E+00
   79     1 H     7.409673535739E-01 -5.325893690189E+00  1.569317931195E+00
   80     1 H     6.531052468805E+00 -7.409673535739E-01  2.774476709811E+00
   81     1 H    -7.409673535739E-01  2.774476709811E+00  6.531052468805E+00
   82     1 H    -1.569317931195E+00 -7.359403046426E+00 -2.774476709811E+00
   83     1 H    -7.359403046426E+00 -2.774476709811E+00 -1.569317931195E+00
   84     1 H     1.569317931195E+00  7.409673535739E-01 -5.325893690189E+00
   85     1 H    -5.619503131195E+00 -1.275708490189E+00 -3.309217846426E+00
   86     1 H    -2.480867268805E+00  1.275708490189E+00  4.791152553574E+00
   87     1 H    -2.480867268805E+00 -1.275708490189E+00  3.309217846426E+00
   88     1 H    -5.619503131195E+00  1.275708490189E+00 -4.791152553574E+00
   89     1 H    -1.275708490189E+00 -3.309217846426E+00 -5.619503131195E+00
   90     1 H    -3.309217846426E+00 -5.619503131195E+00 -1.275708490189E+00
   91     1 H     1.275708490189E+00 -4.791152553574E+00 -5.619503131195E+00
   92     1 H     4.791152553574E+00 -2.480867268805E+00  1.275708490189E+00
   93     1 H     1.275708490189E+00  4.791152553574E+00 -2.480867268805E+00
   94     1 H     3.309217846426E+00 -2.480867268805E+00 -1.275708490189E+00
   95     1 H    -1.275708490189E+00  3.309217846426E+00 -2.480867268805E+00
   96     1 H    -4.791152553574E+00 -5.619503131195E+00  1.275708490189E+00
   97     1 H     1.287559975534E+00 -1.859698936647E+00  4.387671359200E-01
   98     1 H    -1.287559975534E+00 -6.240671463353E+00  4.387671359200E-01
   99     1 H     1.287559975534E+00  1.859698936647E+00  7.661603264080E+00
  100     1 H     6.812810424466E+00 -1.859698936647E+00 -4.387671359200E-01
  101     1 H     4.387671359200E-01  1.287559975534E+00 -1.859698936647E+00
  102     1 H    -1.859698936647E+00  4.387671359200E-01  1.287559975534E+00
  103     1 H    -4.387671359200E-01  6.812810424466E+00 -1.859698936647E+00
  104     1 H    -6.240671463353E+00  4.387671359200E-01 -1.287559975534E+00
  105     1 H     4.387671359200E-01 -1.287559975534E+00 -6.240671463353E+00
  106     1 H     1.859698936647E+00  7.661603264080E+00  1.287559975534E+00
  107     1 H     7.661603264080E+00  1.287559975534E+00  1.859698936647E+00
  108     1 H    -1.859698936647E+00 -4.387671359200E-01  6.812810424466E+00
  109     1 H    -2.190486263353E+00 -5.337745175534E+00 -4.488952335920E+00
  110     1 H     2.190486263353E+00 -2.762625224466E+00 -4.488952335920E+00
  111     1 H     2.190486263353E+00  2.762625224466E+00 -3.611418064080E+00
  112     1 H    -2.190486263353E+00  5.337745175534E+00 -3.611418064080E+00
  113     1 H    -5.337745175534E+00 -4.488952335920E+00 -2.190486263353E+00
  114     1 H    -4.488952335920E+00 -2.190486263353E+00 -5.337745175534E+00
  115     1 H     5.337745175534E+00 -3.611418064080E+00 -2.190486263353E+00
  116     1 H    -4.488952335920E+00  2.190486263353E+00 -2.762625224466E+00
  117     1 H    -2.762625224466E+00 -4.488952335920E+00  2.190486263353E+00
  118     1 H    -3.611418064080E+00  2.190486263353E+00  2.762625224466E+00
  119     1 H     2.762625224466E+00 -3.611418064080E+00  2.190486263353E+00
  120     1 H    -3.611418064080E+00 -2.190486263353E+00  5.337745175534E+00
  121     1 H    -1.287559975534E+00  1.859698936647E+00 -4.387671359200E-01
  122     1 H     1.287559975534E+00  6.240671463353E+00 -4.387671359200E-01
  123     1 H    -1.287559975534E+00 -1.859698936647E+00 -7.661603264080E+00
  124     1 H    -6.812810424466E+00  1.859698936647E+00  4.387671359200E-01
  125     1 H    -4.387671359200E-01 -1.287559975534E+00  1.859698936647E+00
  126     1 H     1.859698936647E+00 -4.387671359200E-01 -1.287559975534E+00
  127     1 H     4.387671359200E-01 -6.812810424466E+00  1.859698936647E+00
  128     1 H     6.240671463353E+00 -4.387671359200E-01  1.287559975534E+00
  129     1 H    -4.387671359200E-01  1.287559975534E+00  6.240671463353E+00
  130     1 H    -1.859698936647E+00 -7.661603264080E+00 -1.287559975534E+00
  131     1 H    -7.661603264080E+00 -1.287559975534E+00 -1.859698936647E+00
  132     1 H     1.859698936647E+00  4.387671359200E-01 -6.812810424466E+00
  133     1 H     2.190486263353E+00  5.337745175534E+00  4.488952335920E+00
  134     1 H    -2.190486263353E+00  2.762625224466E+00  4.488952335920E+00
  135     1 H    -2.190486263353E+00 -2.762625224466E+00  3.611418064080E+00
  136     1 H     2.190486263353E+00 -5.337745175534E+00  3.611418064080E+00
  137     1 H     5.337745175534E+00  4.488952335920E+00  2.190486263353E+00
  138     1 H     4.488952335920E+00  2.190486263353E+00  5.337745175534E+00
  139     1 H    -5.337745175534E+00  3.611418064080E+00  2.190486263353E+00
  140     1 H     4.488952335920E+00 -2.190486263353E+00  2.762625224466E+00
  141     1 H     2.762625224466E+00  4.488952335920E+00 -2.190486263353E+00
  142     1 H     3.611418064080E+00 -2.190486263353E+00 -2.762625224466E+00
  143     1 H    -2.762625224466E+00  3.611418064080E+00 -2.190486263353E+00
  144     1 H     3.611418064080E+00  2.190486263353E+00 -5.337745175534E+00

 *******************************************************************************
 STARTING BASIS SET HANDLING 
 *******************************************************************************

 Loading internal basis set: DEF2-MSVP           

 Please cite in your publication:
 Fully Optimized Contracted Gaussian Basis Sets for Atoms Li to Kr. A. Schfer, 
 H. Horn and R. Ahlrichs; J. Chem. Phys. 97, 2571 (1992).                       
                                                                                
                    
 S. Grimme, J. G. Brandenburg, C. Bannwarth, and A. Hansen, J. Chem. Phys., 143,
  054107 (2015).                                                                
                                                                                
                    

 *******************************************************************************
 LOCAL ATOMIC FUNCTIONS BASIS SET
 *******************************************************************************
   ATOM   X(AU)   Y(AU)   Z(AU)  N. TYPE  EXPONENT  S COEF   P COEF   D/F/G COEF
 *******************************************************************************
   1 O    4.025  -3.006   0.031
                                  1 S  
                                         6.773E+03 1.727E-03 0.000E+00 0.000E+00
                                         1.017E+03 1.325E-02 0.000E+00 0.000E+00
                                         2.313E+02 6.603E-02 0.000E+00 0.000E+00
                                         6.501E+01 2.353E-01 0.000E+00 0.000E+00
                                         2.050E+01 5.498E-01 0.000E+00 0.000E+00
                                  2 S  
                                         6.716E+00 1.000E+00 0.000E+00 0.000E+00
                                  3 S  
                                         1.147E+00 1.000E+00 0.000E+00 0.000E+00
                                  4 S  
                                         3.342E-01 1.000E+00 0.000E+00 0.000E+00
                           5-     7 P  
                                         1.769E+01 0.000E+00 4.359E-02 0.000E+00
                                         3.854E+00 0.000E+00 2.318E-01 0.000E+00
                                         1.047E+00 0.000E+00 5.146E-01 0.000E+00
                           8-    10 P  
                                         2.759E-01 0.000E+00 1.000E+00 0.000E+00
                          11-    15 D  
                                         8.000E-01 0.000E+00 0.000E+00 1.000E+00
   2 O   -4.025 -12.301   0.031
   3 O    4.025   3.006  15.277
   4 O   11.283  -3.006  -0.031
   5 O    0.031   4.025  -3.006
   6 O   -3.006   0.031   4.025
   7 O   -0.031  11.283  -3.006
   8 O  -12.301   0.031  -4.025
   9 O    0.031  -4.025 -12.301
  10 O    3.006  15.277   4.025
  11 O   15.277   4.025   3.006
  12 O   -3.006  -0.031  11.283
  13 O   10.660   3.629   7.623
  14 O    4.648  -3.629  -7.684
  15 O    4.648   3.629  -7.623
  16 O   10.660  -3.629   7.684
  17 O    3.629   7.623  10.660
  18 O    7.623  10.660   3.629
  19 O   -3.629   7.684  10.660
  20 O   -7.684   4.648  -3.629
  21 O   -3.629  -7.684   4.648
  22 O   -7.623   4.648   3.629
  23 O    3.629  -7.623   4.648
  24 O    7.684  10.660  -3.629
  25 O   -4.025   3.006  -0.031
  26 O    4.025  12.301  -0.031
  27 O   -4.025  -3.006 -15.277
  28 O  -11.283   3.006   0.031
  29 O   -0.031  -4.025   3.006
  30 O    3.006  -0.031  -4.025
  31 O    0.031 -11.283   3.006
  32 O   12.301  -0.031   4.025
  33 O   -0.031   4.025  12.301
  34 O   -3.006 -15.277  -4.025
  35 O  -15.277  -4.025  -3.006
  36 O    3.006   0.031 -11.283
  37 O  -10.660  -3.629  -7.623
  38 O   -4.648   3.629   7.684
  39 O   -4.648  -3.629   7.623
  40 O  -10.660   3.629  -7.684
  41 O   -3.629  -7.623 -10.660
  42 O   -7.623 -10.660  -3.629
  43 O    3.629  -7.684 -10.660
  44 O    7.684  -4.648   3.629
  45 O    3.629   7.684  -4.648
  46 O    7.623  -4.648  -3.629
  47 O   -3.629   7.623  -4.648
  48 O   -7.684 -10.660   3.629
  49 H    5.243  -2.966   1.400
                                721 S  
                                         1.874E+01 1.968E-02 0.000E+00 0.000E+00
                                         2.826E+00 1.380E-01 0.000E+00 0.000E+00
                                         6.401E-01 4.783E-01 0.000E+00 0.000E+00
                                722 S  
                                         1.756E-01 1.000E+00 0.000E+00 0.000E+00
  50 H   -5.243 -12.342   1.400
  51 H    5.243   2.966  13.907
  52 H   10.064  -2.966  -1.400
  53 H    1.400   5.243  -2.966
  54 H   -2.966   1.400   5.243
  55 H   -1.400  10.064  -2.966
  56 H  -12.342   1.400  -5.243
  57 H    1.400  -5.243 -12.342
  58 H    2.966  13.907   5.243
  59 H   13.907   5.243   2.966
  60 H   -2.966  -1.400  10.064
  61 H   10.619   2.411   6.254
  62 H    4.688  -2.411  -9.054
  63 H    4.688   2.411  -6.254
  64 H   10.619  -2.411   9.054
  65 H    2.411   6.254  10.619
  66 H    6.254  10.619   2.411
  67 H   -2.411   9.054  10.619
  68 H   -9.054   4.688  -2.411
  69 H   -2.411  -9.054   4.688
  70 H   -6.254   4.688   2.411
  71 H    2.411  -6.254   4.688
  72 H    9.054  10.619  -2.411
  73 H   -5.243   2.966  -1.400
  74 H    5.243  12.342  -1.400
  75 H   -5.243  -2.966 -13.907
  76 H  -10.064   2.966   1.400
  77 H   -1.400  -5.243   2.966
  78 H    2.966  -1.400  -5.243
  79 H    1.400 -10.064   2.966
  80 H   12.342  -1.400   5.243
  81 H   -1.400   5.243  12.342
  82 H   -2.966 -13.907  -5.243
  83 H  -13.907  -5.243  -2.966
  84 H    2.966   1.400 -10.064
  85 H  -10.619  -2.411  -6.254
  86 H   -4.688   2.411   9.054
  87 H   -4.688  -2.411   6.254
  88 H  -10.619   2.411  -9.054
  89 H   -2.411  -6.254 -10.619
  90 H   -6.254 -10.619  -2.411
  91 H    2.411  -9.054 -10.619
  92 H    9.054  -4.688   2.411
  93 H    2.411   9.054  -4.688
  94 H    6.254  -4.688  -2.411
  95 H   -2.411   6.254  -4.688
  96 H   -9.054 -10.619   2.411
  97 H    2.433  -3.514   0.829
  98 H   -2.433 -11.793   0.829
  99 H    2.433   3.514  14.478
 100 H   12.874  -3.514  -0.829
 101 H    0.829   2.433  -3.514
 102 H   -3.514   0.829   2.433
 103 H   -0.829  12.874  -3.514
 104 H  -11.793   0.829  -2.433
 105 H    0.829  -2.433 -11.793
 106 H    3.514  14.478   2.433
 107 H   14.478   2.433   3.514
 108 H   -3.514  -0.829  12.874
 109 H   -4.139 -10.087  -8.483
 110 H    4.139  -5.221  -8.483
 111 H    4.139   5.221  -6.825
 112 H   -4.139  10.087  -6.825
 113 H  -10.087  -8.483  -4.139
 114 H   -8.483  -4.139 -10.087
 115 H   10.087  -6.825  -4.139
 116 H   -8.483   4.139  -5.221
 117 H   -5.221  -8.483   4.139
 118 H   -6.825   4.139   5.221
 119 H    5.221  -6.825   4.139
 120 H   -6.825  -4.139  10.087
 121 H   -2.433   3.514  -0.829
 122 H    2.433  11.793  -0.829
 123 H   -2.433  -3.514 -14.478
 124 H  -12.874   3.514   0.829
 125 H   -0.829  -2.433   3.514
 126 H    3.514  -0.829  -2.433
 127 H    0.829 -12.874   3.514
 128 H   11.793  -0.829   2.433
 129 H   -0.829   2.433  11.793
 130 H   -3.514 -14.478  -2.433
 131 H  -14.478  -2.433  -3.514
 132 H    3.514   0.829 -12.874
 133 H    4.139  10.087   8.483
 134 H   -4.139   5.221   8.483
 135 H   -4.139  -5.221   6.825
 136 H    4.139 -10.087   6.825
 137 H   10.087   8.483   4.139
 138 H    8.483   4.139  10.087
 139 H  -10.087   6.825   4.139
 140 H    8.483  -4.139   5.221
 141 H    5.221   8.483  -4.139
 142 H    6.825  -4.139  -5.221
 143 H   -5.221   6.825  -4.139
 144 H    6.825   4.139 -10.087

 *******************************************************************************
 FINISHED BASIS SET HANDLING 
 *******************************************************************************

 INFORMATION **** SET_MPP **** PCRYSTAL CALCULATION
 INFORMATION **** READM2 **** NEW DEFAULT: FOCK/KS MATRIX MIXING SET TO 30 %
 INFORMATION **** READM2 **** NEW DEFAULT: FULL DIRECT SCF MODE
 INFORMATION **** READM2 **** NEW DEFAULT: COULOMB BIPOLAR BUFFER SET TO 32 Mb
 INFORMATION **** READM2 **** NEW DEFAULT: EXCHANGE BIPOLAR BUFFER SET TO 32 Mb

 *******************************************************************************
 NEW DEFAULT: DFT INTEGRATION GRID INCREASED TO XLGRID
 NEW DEFAULT: DIIS ACCELERATOR ACTIVE
 USE KEYWORD NODIIS TO TURN IT OFF
 *******************************************************************************

 INFORMATION **** RDDFTP **** HSE-3c calculation
 INFORMATION **** RDDFTP **** HSE screened hybrid functional combined with D3 and gCP

PLEASE CITE:
(1) HSE-3c Reference
 J. G. Brandenburg, E. Caldeweyer, and S. Grimme, 
 Phys. Chem. Chem. Phys. 18, 15519 (2016)
(2) DFT-D3 Reference
 S. Grimme, J. Antony, S. Ehrlich,
 and H. Krieg, J. Chem. Phys. 132, 154104 (2010)
(3) gCP Reference
 H. Kruse and S. Grimme J. Chem. Phys, 136, 154101 (2012)
 J. G. Brandenburg, M. Alessio, B. Civalleri, M. F. Peintinger
 T. Bredow, and S. Grimme, J. Phys. Chem. A, 117, 9282 (2013) 

 WARNING **** RDDFTP **** HSE3c-HJS ACTIVE
 RANGE SEPARATION - OMEGA:   0.110000000000000     
 WARNING **** RDDFTP **** HSE-3c has to be combined with def2-mSVP basis set
 WARNING **** RDDFTP **** Note: Harmonic frequencies are scaled by 0.95
 WARNING **** RDDFTP **** as recommended in original publication
 INFORMATION **** BIPOSIZE **** COULOMB BIPOLAR BUFFER SET TO    60000000
 INFORMATION **** EXCHSIZE **** EXCHANGE BIPOLAR BUFFER SIZE SET TO    40000000
 *******************************************************************************
 N. OF ATOMS PER CELL       144  COULOMB OVERLAP TOL         (T1) 10**   -6
 NUMBER OF SHELLS           528  COULOMB PENETRATION TOL     (T2) 10**   -6
 NUMBER OF AO               912  EXCHANGE OVERLAP TOL        (T3) 10**   -6
 N. OF ELECTRONS PER CELL   480  EXCHANGE PSEUDO OVP (F(G))  (T4) 10**   -6
 CORE ELECTRONS PER CELL     96  EXCHANGE PSEUDO OVP (P(G))  (T5) 10**  -12
 N. OF SYMMETRY OPERATORS    48  POLE ORDER IN MONO ZONE                  4
 *******************************************************************************
 TYPE OF CALCULATION :  RESTRICTED CLOSED SHELL
 KOHN-SHAM HAMILTONIAN

 (EXCHANGE)[CORRELATION] FUNCTIONAL:(HSE-3c)[PBEh-3c]

 RANGE-SEPARATED HYBRID FUNCTIONAL 
 OMEGA (SHORT-RANGE)[LONG-RANGE]:(    0.1100)[    0.0000]

 HYBRID EXCHANGE - PERCENTAGE OF FOCK EXCHANGE    42.0000

 CAPPA:IS1  1;IS2  1;IS3  1; K PTS MONK NET   1; SYMMOPS:K SPACE  48;G SPACE  48

 *******************************************************************************
 MAX NUMBER OF SCF CYCLES      50  CONVERGENCE ON DELTAP        10**-16
 WEIGHT OF F(I) IN F(I+1)      30% CONVERGENCE ON ENERGY        10**- 6
 S(K) EIGENV. THRESHOLD  10*10.**-4
 SHRINK. FACT.(MONKH.)    1  1  1  NUMBER OF K POINTS IN THE IBZ      1
 SHRINKING FACTOR(GILAT NET)    1  NUMBER OF K POINTS(GILAT NET)      1
 *******************************************************************************
 *** K POINTS COORDINATES (OBLIQUE COORDINATES IN UNITS OF IS =  1)
   1-R(  0  0  0)

 DIRECT LATTICE VECTORS COMPON. (A.U.)     RECIP. LATTICE VECTORS COMPON. (A.U.) 
        X            Y            Z              X            Y            Z
  -15.3074816   15.3074816   15.3074816      0.0000000    0.2052325    0.2052325
   15.3074816  -15.3074816   15.3074816      0.2052325    0.0000000    0.2052325
   15.3074816   15.3074816  -15.3074816      0.2052325    0.2052325    0.0000000

 DISK SPACE FOR EIGENVECTORS (FTN 10)      831744 REALS

 SYMMETRY ADAPTION OF THE BLOCH FUNCTIONS ENABLED
 TTTTTTTTTTTTTTTTTTTTTTTTTTTTTT gordsh1     TELAPSE        0.18 TCPU        0.07

 MATRIX SIZE: P(G)  310560, F(G)   61848, P(G) IRR    3404, F(G) IRR    1326
 MAX G-VECTOR INDEX FOR 1- AND 2-ELECTRON INTEGRALS  36

 TTTTTTTTTTTTTTTTTTTTTTTTTTTTTT INPUT       TELAPSE        0.19 TCPU        0.08

 NEIGHBORS OF THE NON-EQUIVALENT ATOMS

 N = NUMBER OF NEIGHBORS AT DISTANCE R
    ATOM  N     R/ANG      R/AU   NEIGHBORS (ATOM LABELS AND CELL INDICES)
   1 O    1     0.9702     1.8334   49 H    0 0 0
   1 O    1     0.9799     1.8517   97 H    0 0 0
   1 O    1     1.7607     3.3272  126 H    0 0 0
   1 O    1     1.9628     3.7092   94 H    0 0 0
   1 O    2     2.7157     5.1319   29 O    0 0 0   30 O    0 0 0
   1 O    2     2.8515     5.3886   44 O    0 0 0   46 O    0 0 0

  49 H    1     0.9702     1.8334    1 O    0 0 0
  49 H    1     1.5449     2.9193   97 H    0 0 0
  49 H    1     1.9628     3.7092   44 O    0 0 0
  49 H    2     2.2768     4.3025   92 H    0 0 0   94 H    0 0 0
  49 H    1     2.4960     4.7167  126 H    0 0 0
  49 H    1     2.5043     4.7324  119 H    0 0 0

  97 H    1     0.9799     1.8517    1 O    0 0 0
  97 H    1     1.5449     2.9193   49 H    0 0 0
  97 H    1     1.7607     3.3272   29 O    0 0 0
  97 H    2     2.3079     4.3614  125 H    0 0 0  126 H    0 0 0
  97 H    1     2.4960     4.7167   77 H    0 0 0
  97 H    1     2.5043     4.7324   71 H    0 0 0


 SYMMETRY ALLOWED INTERNAL DEGREE(S) OF FREEDOM:   9
 TTTTTTTTTTTTTTTTTTTTTTTTTTTTTT SYMM        TELAPSE        0.25 TCPU        0.14
 TTTTTTTTTTTTTTTTTTTTTTTTTTTTTT INT_SCREEN  TELAPSE        0.26 TCPU        0.15

 DFT PARAMETERS

     ATOM       ELECTRONS   NET CHARGE   R(ANGSTROM)
   1   8  O       8.0000      0.0000     0.74000000
  49   1  H       1.0000      0.0000     1.11000000

 SIZE OF GRID=      80821
 TTTTTTTTTTTTTTTTTTTTTTTTTTTTTT MAKE_GRID2  TELAPSE        1.19 TCPU        1.08
 BECKE WEIGHT FUNCTION
 RADSAFE =     2.00
 TOLERANCES - DENSITY:10**- 6; POTENTIAL:10**- 9; GRID WGT:10**-14

 RADIAL INTEGRATION  - INTERVALS (POINTS,UPPER LIMIT):            1( 75,  4.0*R)

 ANGULAR INTEGRATION - INTERVALS (ACCURACY LEVEL [N. POINTS] UPPER LIMIT):
  1(  4[  86]   0.2)  2(  8[ 194]   0.5)  3( 12[ 350]   0.9)  4( 16[ 974]   3.5)
  5( 12[ 350]9999.0)
 TTTTTTTTTTTTTTTTTTTTTTTTTTTTTT INT_CALC    TELAPSE        1.22 TCPU        1.12
 EEEEEEEEEE INT_CALC TERMINATION  DATE 25 03 2019 TIME 17:50:34.6

 *******************************************************************************
 !drive by JGB                                                                   
 CRYSTAL - SCF - TYPE OF CALCULATION :  RESTRICTED CLOSED SHELL
 *******************************************************************************

 CAPPA:IS1  1;IS2  1;IS3  1; K PTS MONK NET   1; SYMMOPS:K SPACE  48;G SPACE  48

 TTTTTTTTTTTTTTTTTTTTTTTTTTTTTT SDIK        TELAPSE        1.32 TCPU        1.21

 AAAAAAAAAAAAAAAAAAAAAAAAAAAAAAAAAAAAAAAAAAAAAAAAAAAAAAAAAAAAAAAAAAAAAAAAAAAAAAA
         ATOMIC WAVEFUNCTION(S)


 NUCLEAR CHARGE  8.0  SYMMETRY SPECIES            S    P
 N. ELECTRONS    8.0  NUMBER OF PRIMITIVE GTOS    8    4
                      NUMBER OF CONTRACTED GTOS   4    2
                      NUMBER OF CLOSED SHELLS     2    0
                      OPEN SHELL OCCUPATION       0    4

  ZNUC SCFIT  TOTAL HF ENERGY   KINETIC ENERGY   VIRIAL THEOREM ACCURACY
   8.0  12   -7.477373220E+01  7.477365593E+01 -2.000001020E+00  3.8E-06

 NUCLEAR CHARGE  1.0  SYMMETRY SPECIES            S
 N. ELECTRONS    1.0  NUMBER OF PRIMITIVE GTOS    4
                      NUMBER OF CONTRACTED GTOS   2
                      NUMBER OF CLOSED SHELLS     0
                      OPEN SHELL OCCUPATION       1

  ZNUC SCFIT  TOTAL HF ENERGY   KINETIC ENERGY   VIRIAL THEOREM ACCURACY
   1.0   1   -4.977266687E-01  5.190767460E-01 -1.958869132E+00  1.8E-16

 AAAAAAAAAAAAAAAAAAAAAAAAAAAAAAAAAAAAAAAAAAAAAAAAAAAAAAAAAAAAAAAAAAAAAAAAAAAAAAA

 CHARGE NORMALIZATION FACTOR   1.00000000
 TOTAL ATOMIC CHARGES:
   8.0000000   8.0000000   8.0000000   8.0000000   8.0000000   8.0000000
   8.0000000   8.0000000   8.0000000   8.0000000   8.0000000   8.0000000
   8.0000000   8.0000000   8.0000000   8.0000000   8.0000000   8.0000000
   8.0000000   8.0000000   8.0000000   8.0000000   8.0000000   8.0000000
   8.0000000   8.0000000   8.0000000   8.0000000   8.0000000   8.0000000
   8.0000000   8.0000000   8.0000000   8.0000000   8.0000000   8.0000000
   8.0000000   8.0000000   8.0000000   8.0000000   8.0000000   8.0000000
   8.0000000   8.0000000   8.0000000   8.0000000   8.0000000   8.0000000
   1.0000000   1.0000000   1.0000000   1.0000000   1.0000000   1.0000000
   1.0000000   1.0000000   1.0000000   1.0000000   1.0000000   1.0000000
   1.0000000   1.0000000   1.0000000   1.0000000   1.0000000   1.0000000
   1.0000000   1.0000000   1.0000000   1.0000000   1.0000000   1.0000000
   1.0000000   1.0000000   1.0000000   1.0000000   1.0000000   1.0000000
   1.0000000   1.0000000   1.0000000   1.0000000   1.0000000   1.0000000
   1.0000000   1.0000000   1.0000000   1.0000000   1.0000000   1.0000000
   1.0000000   1.0000000   1.0000000   1.0000000   1.0000000   1.0000000
   1.0000000   1.0000000   1.0000000   1.0000000   1.0000000   1.0000000
   1.0000000   1.0000000   1.0000000   1.0000000   1.0000000   1.0000000
   1.0000000   1.0000000   1.0000000   1.0000000   1.0000000   1.0000000
   1.0000000   1.0000000   1.0000000   1.0000000   1.0000000   1.0000000
   1.0000000   1.0000000   1.0000000   1.0000000   1.0000000   1.0000000
   1.0000000   1.0000000   1.0000000   1.0000000   1.0000000   1.0000000
   1.0000000   1.0000000   1.0000000   1.0000000   1.0000000   1.0000000
   1.0000000   1.0000000   1.0000000   1.0000000   1.0000000   1.0000000
 TTTTTTTTTTTTTTTTTTTTTTTTTTTTTT MOQGAD      TELAPSE        1.38 TCPU        1.27
 TTTTTTTTTTTTTTTTTTTTTTTTTTTTTT SHELLXN     TELAPSE        1.99 TCPU        1.88
 TTTTTTTTTTTTTTTTTTTTTTTTTTTTTT MONMO3      TELAPSE        2.20 TCPU        2.09
 NUMERICALLY INTEGRATED DENSITY    479.9999459719
 TTTTTTTTTTTTTTTTTTTTTTTTTTTTTT NUMDFT      TELAPSE        2.35 TCPU        2.24
 CYC   0 ETOT(AU) -3.662798596598E+03 DETOT -3.66E+03 tst  0.00E+00 PX  1.00E+00
 TTTTTTTTTTTTTTTTTTTTTTTTTTTTTT DIIS        TELAPSE        2.36 TCPU        2.25
 TTTTTTTTTTTTTTTTTTTTTTTTTTTTTT FDIK        TELAPSE        2.53 TCPU        2.38
 INSULATING STATE
 TOP OF VALENCE BANDS -    BAND    240; K    1; EIG -4.1889857E-01 AU
 BOTTOM OF VIRTUAL BANDS - BAND    241; K    1; EIG -4.5048590E-02 AU
 DIRECT ENERGY BAND GAP:  10.1730 eV
 TTTTTTTTTTTTTTTTTTTTTTTTTTTTTT PDIG        TELAPSE        2.58 TCPU        2.43
 CHARGE NORMALIZATION FACTOR   1.00000000
 TOTAL ATOMIC CHARGES:
   9.0749917   9.0749917   9.0749917   9.0749917   9.0749917   9.0749917
   9.0749917   9.0749917   9.0749917   9.0749917   9.0749917   9.0749917
   9.0749917   9.0749917   9.0749917   9.0749917   9.0749917   9.0749917
   9.0749917   9.0749917   9.0749917   9.0749917   9.0749917   9.0749917
   9.0749917   9.0749917   9.0749917   9.0749917   9.0749917   9.0749917
   9.0749917   9.0749917   9.0749917   9.0749917   9.0749917   9.0749917
   9.0749917   9.0749917   9.0749917   9.0749917   9.0749917   9.0749917
   9.0749917   9.0749917   9.0749917   9.0749917   9.0749917   9.0749917
   0.4647757   0.4647757   0.4647757   0.4647757   0.4647757   0.4647757
   0.4647757   0.4647757   0.4647757   0.4647757   0.4647757   0.4647757
   0.4647757   0.4647757   0.4647757   0.4647757   0.4647757   0.4647757
   0.4647757   0.4647757   0.4647757   0.4647757   0.4647757   0.4647757
   0.4647757   0.4647757   0.4647757   0.4647757   0.4647757   0.4647757
   0.4647757   0.4647757   0.4647757   0.4647757   0.4647757   0.4647757
   0.4647757   0.4647757   0.4647757   0.4647757   0.4647757   0.4647757
   0.4647757   0.4647757   0.4647757   0.4647757   0.4647757   0.4647757
   0.4602327   0.4602327   0.4602327   0.4602327   0.4602327   0.4602327
   0.4602327   0.4602327   0.4602327   0.4602327   0.4602327   0.4602327
   0.4602327   0.4602327   0.4602327   0.4602327   0.4602327   0.4602327
   0.4602327   0.4602327   0.4602327   0.4602327   0.4602327   0.4602327
   0.4602327   0.4602327   0.4602327   0.4602327   0.4602327   0.4602327
   0.4602327   0.4602327   0.4602327   0.4602327   0.4602327   0.4602327
   0.4602327   0.4602327   0.4602327   0.4602327   0.4602327   0.4602327
   0.4602327   0.4602327   0.4602327   0.4602327   0.4602327   0.4602327
 TTTTTTTTTTTTTTTTTTTTTTTTTTTTTT MOQGAD      TELAPSE        2.59 TCPU        2.44
 TTTTTTTTTTTTTTTTTTTTTTTTTTTTTT SHELLXN     TELAPSE        3.22 TCPU        3.07
 TTTTTTTTTTTTTTTTTTTTTTTTTTTTTT MONMO3      TELAPSE        3.40 TCPU        3.25
 NUMERICALLY INTEGRATED DENSITY    479.9999453502
 TTTTTTTTTTTTTTTTTTTTTTTTTTTTTT NUMDFT      TELAPSE        3.70 TCPU        3.55
 CYC   1 ETOT(AU) -3.660636160141E+03 DETOT  2.16E+00 tst  0.00E+00 PX  1.00E+00
 TTTTTTTTTTTTTTTTTTTTTTTTTTTTTT DIIS        TELAPSE        3.73 TCPU        3.58
 DIIS TEST: 0.19510E+01 AT SCF   CYCLE   1 - MIX   30 %
 TTTTTTTTTTTTTTTTTTTTTTTTTTTTTT FDIK        TELAPSE        3.74 TCPU        3.59
 INSULATING STATE
 TOP OF VALENCE BANDS -    BAND    240; K    1; EIG -3.1197572E-01 AU
 BOTTOM OF VIRTUAL BANDS - BAND    241; K    1; EIG  2.6253810E-02 AU
 DIRECT ENERGY BAND GAP:   9.2037 eV
 TTTTTTTTTTTTTTTTTTTTTTTTTTTTTT PDIG        TELAPSE        3.79 TCPU        3.64
 CHARGE NORMALIZATION FACTOR   1.00000000
 TOTAL ATOMIC CHARGES:
   8.8459102   8.8459102   8.8459102   8.8459102   8.8459102   8.8459102
   8.8459102   8.8459102   8.8459102   8.8459102   8.8459102   8.8459102
   8.8459102   8.8459102   8.8459102   8.8459102   8.8459102   8.8459102
   8.8459102   8.8459102   8.8459102   8.8459102   8.8459102   8.8459102
   8.8459102   8.8459102   8.8459102   8.8459102   8.8459102   8.8459102
   8.8459102   8.8459102   8.8459102   8.8459102   8.8459102   8.8459102
   8.8459102   8.8459102   8.8459102   8.8459102   8.8459102   8.8459102
   8.8459102   8.8459102   8.8459102   8.8459102   8.8459102   8.8459102
   0.5869427   0.5869427   0.5869427   0.5869427   0.5869427   0.5869427
   0.5869427   0.5869427   0.5869427   0.5869427   0.5869427   0.5869427
   0.5869427   0.5869427   0.5869427   0.5869427   0.5869427   0.5869427
   0.5869427   0.5869427   0.5869427   0.5869427   0.5869427   0.5869427
   0.5869427   0.5869427   0.5869427   0.5869427   0.5869427   0.5869427
   0.5869427   0.5869427   0.5869427   0.5869427   0.5869427   0.5869427
   0.5869427   0.5869427   0.5869427   0.5869427   0.5869427   0.5869427
   0.5869427   0.5869427   0.5869427   0.5869427   0.5869427   0.5869427
   0.5671471   0.5671471   0.5671471   0.5671471   0.5671471   0.5671471
   0.5671471   0.5671471   0.5671471   0.5671471   0.5671471   0.5671471
   0.5671471   0.5671471   0.5671471   0.5671471   0.5671471   0.5671471
   0.5671471   0.5671471   0.5671471   0.5671471   0.5671471   0.5671471
   0.5671471   0.5671471   0.5671471   0.5671471   0.5671471   0.5671471
   0.5671471   0.5671471   0.5671471   0.5671471   0.5671471   0.5671471
   0.5671471   0.5671471   0.5671471   0.5671471   0.5671471   0.5671471
   0.5671471   0.5671471   0.5671471   0.5671471   0.5671471   0.5671471
 TTTTTTTTTTTTTTTTTTTTTTTTTTTTTT MOQGAD      TELAPSE        3.80 TCPU        3.65
 TTTTTTTTTTTTTTTTTTTTTTTTTTTTTT SHELLXN     TELAPSE        4.43 TCPU        4.27
 TTTTTTTTTTTTTTTTTTTTTTTTTTTTTT MONMO3      TELAPSE        4.62 TCPU        4.46
 NUMERICALLY INTEGRATED DENSITY    479.9999448898
 TTTTTTTTTTTTTTTTTTTTTTTTTTTTTT NUMDFT      TELAPSE        4.91 TCPU        4.76
 CYC   2 ETOT(AU) -3.661730612185E+03 DETOT -1.09E+00 tst  3.49E-03 PX  1.30E-01
 TTTTTTTTTTTTTTTTTTTTTTTTTTTTTT DIIS        TELAPSE        5.16 TCPU        4.76
 DIIS TEST: 0.43656E+00 AT SCF   CYCLE   2 - DIIS ACTIVE - HISTORY:     2 CYCLES
 TTTTTTTTTTTTTTTTTTTTTTTTTTTTTT FDIK        TELAPSE        5.18 TCPU        4.76
 INSULATING STATE
 TOP OF VALENCE BANDS -    BAND    240; K    1; EIG -3.5886899E-01 AU
 BOTTOM OF VIRTUAL BANDS - BAND    241; K    1; EIG  2.4257321E-02 AU
 DIRECT ENERGY BAND GAP:  10.4254 eV
 TTTTTTTTTTTTTTTTTTTTTTTTTTTTTT PDIG        TELAPSE        5.23 TCPU        4.81
 CHARGE NORMALIZATION FACTOR   1.00000000
 TOTAL ATOMIC CHARGES:
   8.9215301   8.9215301   8.9215301   8.9215301   8.9215301   8.9215301
   8.9215301   8.9215301   8.9215301   8.9215301   8.9215301   8.9215301
   8.9215301   8.9215301   8.9215301   8.9215301   8.9215301   8.9215301
   8.9215301   8.9215301   8.9215301   8.9215301   8.9215301   8.9215301
   8.9215301   8.9215301   8.9215301   8.9215301   8.9215301   8.9215301
   8.9215301   8.9215301   8.9215301   8.9215301   8.9215301   8.9215301
   8.9215301   8.9215301   8.9215301   8.9215301   8.9215301   8.9215301
   8.9215301   8.9215301   8.9215301   8.9215301   8.9215301   8.9215301
   0.5487839   0.5487839   0.5487839   0.5487839   0.5487839   0.5487839
   0.5487839   0.5487839   0.5487839   0.5487839   0.5487839   0.5487839
   0.5487839   0.5487839   0.5487839   0.5487839   0.5487839   0.5487839
   0.5487839   0.5487839   0.5487839   0.5487839   0.5487839   0.5487839
   0.5487839   0.5487839   0.5487839   0.5487839   0.5487839   0.5487839
   0.5487839   0.5487839   0.5487839   0.5487839   0.5487839   0.5487839
   0.5487839   0.5487839   0.5487839   0.5487839   0.5487839   0.5487839
   0.5487839   0.5487839   0.5487839   0.5487839   0.5487839   0.5487839
   0.5296860   0.5296860   0.5296860   0.5296860   0.5296860   0.5296860
   0.5296860   0.5296860   0.5296860   0.5296860   0.5296860   0.5296860
   0.5296860   0.5296860   0.5296860   0.5296860   0.5296860   0.5296860
   0.5296860   0.5296860   0.5296860   0.5296860   0.5296860   0.5296860
   0.5296860   0.5296860   0.5296860   0.5296860   0.5296860   0.5296860
   0.5296860   0.5296860   0.5296860   0.5296860   0.5296860   0.5296860
   0.5296860   0.5296860   0.5296860   0.5296860   0.5296860   0.5296860
   0.5296860   0.5296860   0.5296860   0.5296860   0.5296860   0.5296860
 TTTTTTTTTTTTTTTTTTTTTTTTTTTTTT MOQGAD      TELAPSE        5.24 TCPU        4.82
 TTTTTTTTTTTTTTTTTTTTTTTTTTTTTT SHELLXN     TELAPSE        5.86 TCPU        5.44
 TTTTTTTTTTTTTTTTTTTTTTTTTTTTTT MONMO3      TELAPSE        6.06 TCPU        5.64
 NUMERICALLY INTEGRATED DENSITY    479.9999454506
 TTTTTTTTTTTTTTTTTTTTTTTTTTTTTT NUMDFT      TELAPSE        6.35 TCPU        5.94
 CYC   3 ETOT(AU) -3.662051467988E+03 DETOT -3.21E-01 tst  3.64E-04 PX  4.75E-02
 TTTTTTTTTTTTTTTTTTTTTTTTTTTTTT DIIS        TELAPSE        6.36 TCPU        5.95
 DIIS TEST: 0.14074E-02 AT SCF   CYCLE   3 - DIIS ACTIVE - HISTORY:     3 CYCLES
 TTTTTTTTTTTTTTTTTTTTTTTTTTTTTT FDIK        TELAPSE        6.38 TCPU        5.95
 INSULATING STATE
 TOP OF VALENCE BANDS -    BAND    240; K    1; EIG -3.5617825E-01 AU
 BOTTOM OF VIRTUAL BANDS - BAND    241; K    1; EIG  2.7127886E-02 AU
 DIRECT ENERGY BAND GAP:  10.4303 eV
 TTTTTTTTTTTTTTTTTTTTTTTTTTTTTT PDIG        TELAPSE        6.44 TCPU        6.01
 CHARGE NORMALIZATION FACTOR   1.00000000
 TOTAL ATOMIC CHARGES:
   8.9180857   8.9180857   8.9180857   8.9180857   8.9180857   8.9180857
   8.9180857   8.9180857   8.9180857   8.9180857   8.9180857   8.9180857
   8.9180857   8.9180857   8.9180857   8.9180857   8.9180857   8.9180857
   8.9180857   8.9180857   8.9180857   8.9180857   8.9180857   8.9180857
   8.9180857   8.9180857   8.9180857   8.9180857   8.9180857   8.9180857
   8.9180857   8.9180857   8.9180857   8.9180857   8.9180857   8.9180857
   8.9180857   8.9180857   8.9180857   8.9180857   8.9180857   8.9180857
   8.9180857   8.9180857   8.9180857   8.9180857   8.9180857   8.9180857
   0.5505681   0.5505681   0.5505681   0.5505681   0.5505681   0.5505681
   0.5505681   0.5505681   0.5505681   0.5505681   0.5505681   0.5505681
   0.5505681   0.5505681   0.5505681   0.5505681   0.5505681   0.5505681
   0.5505681   0.5505681   0.5505681   0.5505681   0.5505681   0.5505681
   0.5505681   0.5505681   0.5505681   0.5505681   0.5505681   0.5505681
   0.5505681   0.5505681   0.5505681   0.5505681   0.5505681   0.5505681
   0.5505681   0.5505681   0.5505681   0.5505681   0.5505681   0.5505681
   0.5505681   0.5505681   0.5505681   0.5505681   0.5505681   0.5505681
   0.5313462   0.5313462   0.5313462   0.5313462   0.5313462   0.5313462
   0.5313462   0.5313462   0.5313462   0.5313462   0.5313462   0.5313462
   0.5313462   0.5313462   0.5313462   0.5313462   0.5313462   0.5313462
   0.5313462   0.5313462   0.5313462   0.5313462   0.5313462   0.5313462
   0.5313462   0.5313462   0.5313462   0.5313462   0.5313462   0.5313462
   0.5313462   0.5313462   0.5313462   0.5313462   0.5313462   0.5313462
   0.5313462   0.5313462   0.5313462   0.5313462   0.5313462   0.5313462
   0.5313462   0.5313462   0.5313462   0.5313462   0.5313462   0.5313462
 TTTTTTTTTTTTTTTTTTTTTTTTTTTTTT MOQGAD      TELAPSE        6.46 TCPU        6.02
 TTTTTTTTTTTTTTTTTTTTTTTTTTTTTT SHELLXN     TELAPSE        7.08 TCPU        6.64
 TTTTTTTTTTTTTTTTTTTTTTTTTTTTTT MONMO3      TELAPSE        7.28 TCPU        6.84
 NUMERICALLY INTEGRATED DENSITY    479.9999453969
 TTTTTTTTTTTTTTTTTTTTTTTTTTTTTT NUMDFT      TELAPSE        7.57 TCPU        7.14
 CYC   4 ETOT(AU) -3.662052266984E+03 DETOT -7.99E-04 tst  1.35E-06 PX  1.64E-03
 TTTTTTTTTTTTTTTTTTTTTTTTTTTTTT DIIS        TELAPSE        7.58 TCPU        7.14
 DIIS TEST: 0.27536E-04 AT SCF   CYCLE   4 - DIIS ACTIVE - HISTORY:     4 CYCLES
 TTTTTTTTTTTTTTTTTTTTTTTTTTTTTT FDIK        TELAPSE        7.60 TCPU        7.15
 INSULATING STATE
 TOP OF VALENCE BANDS -    BAND    240; K    1; EIG -3.5608128E-01 AU
 BOTTOM OF VIRTUAL BANDS - BAND    241; K    1; EIG  2.7375698E-02 AU
 DIRECT ENERGY BAND GAP:  10.4344 eV
 TTTTTTTTTTTTTTTTTTTTTTTTTTTTTT PDIG        TELAPSE        7.65 TCPU        7.19
 CHARGE NORMALIZATION FACTOR   1.00000000
 TOTAL ATOMIC CHARGES:
   8.9180599   8.9180599   8.9180599   8.9180599   8.9180599   8.9180599
   8.9180599   8.9180599   8.9180599   8.9180599   8.9180599   8.9180599
   8.9180599   8.9180599   8.9180599   8.9180599   8.9180599   8.9180599
   8.9180599   8.9180599   8.9180599   8.9180599   8.9180599   8.9180599
   8.9180599   8.9180599   8.9180599   8.9180599   8.9180599   8.9180599
   8.9180599   8.9180599   8.9180599   8.9180599   8.9180599   8.9180599
   8.9180599   8.9180599   8.9180599   8.9180599   8.9180599   8.9180599
   8.9180599   8.9180599   8.9180599   8.9180599   8.9180599   8.9180599
   0.5506339   0.5506339   0.5506339   0.5506339   0.5506339   0.5506339
   0.5506339   0.5506339   0.5506339   0.5506339   0.5506339   0.5506339
   0.5506339   0.5506339   0.5506339   0.5506339   0.5506339   0.5506339
   0.5506339   0.5506339   0.5506339   0.5506339   0.5506339   0.5506339
   0.5506339   0.5506339   0.5506339   0.5506339   0.5506339   0.5506339
   0.5506339   0.5506339   0.5506339   0.5506339   0.5506339   0.5506339
   0.5506339   0.5506339   0.5506339   0.5506339   0.5506339   0.5506339
   0.5506339   0.5506339   0.5506339   0.5506339   0.5506339   0.5506339
   0.5313062   0.5313062   0.5313062   0.5313062   0.5313062   0.5313062
   0.5313062   0.5313062   0.5313062   0.5313062   0.5313062   0.5313062
   0.5313062   0.5313062   0.5313062   0.5313062   0.5313062   0.5313062
   0.5313062   0.5313062   0.5313062   0.5313062   0.5313062   0.5313062
   0.5313062   0.5313062   0.5313062   0.5313062   0.5313062   0.5313062
   0.5313062   0.5313062   0.5313062   0.5313062   0.5313062   0.5313062
   0.5313062   0.5313062   0.5313062   0.5313062   0.5313062   0.5313062
   0.5313062   0.5313062   0.5313062   0.5313062   0.5313062   0.5313062
 TTTTTTTTTTTTTTTTTTTTTTTTTTTTTT MOQGAD      TELAPSE        7.66 TCPU        7.21
 TTTTTTTTTTTTTTTTTTTTTTTTTTTTTT SHELLXN     TELAPSE        8.28 TCPU        7.82
 TTTTTTTTTTTTTTTTTTTTTTTTTTTTTT MONMO3      TELAPSE        8.48 TCPU        8.03
 NUMERICALLY INTEGRATED DENSITY    479.9999453978
 TTTTTTTTTTTTTTTTTTTTTTTTTTTTTT NUMDFT      TELAPSE        8.78 TCPU        8.32
 CYC   5 ETOT(AU) -3.662052285330E+03 DETOT -1.83E-05 tst  2.21E-08 PX  1.84E-04
 TTTTTTTTTTTTTTTTTTTTTTTTTTTTTT DIIS        TELAPSE        8.79 TCPU        8.33
 DIIS TEST: 0.39678E-06 AT SCF   CYCLE   5 - DIIS ACTIVE - HISTORY:     5 CYCLES
 TTTTTTTTTTTTTTTTTTTTTTTTTTTTTT FDIK        TELAPSE        8.81 TCPU        8.33
 INSULATING STATE
 TOP OF VALENCE BANDS -    BAND    240; K    1; EIG -3.5605819E-01 AU
 BOTTOM OF VIRTUAL BANDS - BAND    241; K    1; EIG  2.7395374E-02 AU
 DIRECT ENERGY BAND GAP:  10.4343 eV
 TTTTTTTTTTTTTTTTTTTTTTTTTTTTTT PDIG        TELAPSE        8.85 TCPU        8.38
 CHARGE NORMALIZATION FACTOR   1.00000000
 TOTAL ATOMIC CHARGES:
   8.9179974   8.9179974   8.9179974   8.9179974   8.9179974   8.9179974
   8.9179974   8.9179974   8.9179974   8.9179974   8.9179974   8.9179974
   8.9179974   8.9179974   8.9179974   8.9179974   8.9179974   8.9179974
   8.9179974   8.9179974   8.9179974   8.9179974   8.9179974   8.9179974
   8.9179974   8.9179974   8.9179974   8.9179974   8.9179974   8.9179974
   8.9179974   8.9179974   8.9179974   8.9179974   8.9179974   8.9179974
   8.9179974   8.9179974   8.9179974   8.9179974   8.9179974   8.9179974
   8.9179974   8.9179974   8.9179974   8.9179974   8.9179974   8.9179974
   0.5506635   0.5506635   0.5506635   0.5506635   0.5506635   0.5506635
   0.5506635   0.5506635   0.5506635   0.5506635   0.5506635   0.5506635
   0.5506635   0.5506635   0.5506635   0.5506635   0.5506635   0.5506635
   0.5506635   0.5506635   0.5506635   0.5506635   0.5506635   0.5506635
   0.5506635   0.5506635   0.5506635   0.5506635   0.5506635   0.5506635
   0.5506635   0.5506635   0.5506635   0.5506635   0.5506635   0.5506635
   0.5506635   0.5506635   0.5506635   0.5506635   0.5506635   0.5506635
   0.5506635   0.5506635   0.5506635   0.5506635   0.5506635   0.5506635
   0.5313391   0.5313391   0.5313391   0.5313391   0.5313391   0.5313391
   0.5313391   0.5313391   0.5313391   0.5313391   0.5313391   0.5313391
   0.5313391   0.5313391   0.5313391   0.5313391   0.5313391   0.5313391
   0.5313391   0.5313391   0.5313391   0.5313391   0.5313391   0.5313391
   0.5313391   0.5313391   0.5313391   0.5313391   0.5313391   0.5313391
   0.5313391   0.5313391   0.5313391   0.5313391   0.5313391   0.5313391
   0.5313391   0.5313391   0.5313391   0.5313391   0.5313391   0.5313391
   0.5313391   0.5313391   0.5313391   0.5313391   0.5313391   0.5313391
 TTTTTTTTTTTTTTTTTTTTTTTTTTTTTT MOQGAD      TELAPSE        8.86 TCPU        8.39
 TTTTTTTTTTTTTTTTTTTTTTTTTTTTTT SHELLXN     TELAPSE        9.48 TCPU        9.01
 TTTTTTTTTTTTTTTTTTTTTTTTTTTTTT MONMO3      TELAPSE        9.69 TCPU        9.21
 NUMERICALLY INTEGRATED DENSITY    479.9999453961
 TTTTTTTTTTTTTTTTTTTTTTTTTTTTTT NUMDFT      TELAPSE        9.98 TCPU        9.51
 CYC   6 ETOT(AU) -3.662052285457E+03 DETOT -1.26E-07 tst  6.61E-10 PX  4.94E-05
 TTTTTTTTTTTTTTTTTTTTTTTTTTTTTT DIIS        TELAPSE        9.99 TCPU        9.52
 DIIS TEST: 0.70184E-08 AT SCF   CYCLE   6 - DIIS ACTIVE - HISTORY:     6 CYCLES
 TTTTTTTTTTTTTTTTTTTTTTTTTTTTTT FDIK        TELAPSE       10.00 TCPU        9.52
 INSULATING STATE
 TOP OF VALENCE BANDS -    BAND    240; K    1; EIG -3.5605808E-01 AU
 BOTTOM OF VIRTUAL BANDS - BAND    241; K    1; EIG  2.7395088E-02 AU
 DIRECT ENERGY BAND GAP:  10.4343 eV
 TTTTTTTTTTTTTTTTTTTTTTTTTTTTTT PDIG        TELAPSE       10.05 TCPU        9.57
 CHARGE NORMALIZATION FACTOR   1.00000000
 TOTAL ATOMIC CHARGES:
   8.9179914   8.9179914   8.9179914   8.9179914   8.9179914   8.9179914
   8.9179914   8.9179914   8.9179914   8.9179914   8.9179914   8.9179914
   8.9179914   8.9179914   8.9179914   8.9179914   8.9179914   8.9179914
   8.9179914   8.9179914   8.9179914   8.9179914   8.9179914   8.9179914
   8.9179914   8.9179914   8.9179914   8.9179914   8.9179914   8.9179914
   8.9179914   8.9179914   8.9179914   8.9179914   8.9179914   8.9179914
   8.9179914   8.9179914   8.9179914   8.9179914   8.9179914   8.9179914
   8.9179914   8.9179914   8.9179914   8.9179914   8.9179914   8.9179914
   0.5506698   0.5506698   0.5506698   0.5506698   0.5506698   0.5506698
   0.5506698   0.5506698   0.5506698   0.5506698   0.5506698   0.5506698
   0.5506698   0.5506698   0.5506698   0.5506698   0.5506698   0.5506698
   0.5506698   0.5506698   0.5506698   0.5506698   0.5506698   0.5506698
   0.5506698   0.5506698   0.5506698   0.5506698   0.5506698   0.5506698
   0.5506698   0.5506698   0.5506698   0.5506698   0.5506698   0.5506698
   0.5506698   0.5506698   0.5506698   0.5506698   0.5506698   0.5506698
   0.5506698   0.5506698   0.5506698   0.5506698   0.5506698   0.5506698
   0.5313388   0.5313388   0.5313388   0.5313388   0.5313388   0.5313388
   0.5313388   0.5313388   0.5313388   0.5313388   0.5313388   0.5313388
   0.5313388   0.5313388   0.5313388   0.5313388   0.5313388   0.5313388
   0.5313388   0.5313388   0.5313388   0.5313388   0.5313388   0.5313388
   0.5313388   0.5313388   0.5313388   0.5313388   0.5313388   0.5313388
   0.5313388   0.5313388   0.5313388   0.5313388   0.5313388   0.5313388
   0.5313388   0.5313388   0.5313388   0.5313388   0.5313388   0.5313388
   0.5313388   0.5313388   0.5313388   0.5313388   0.5313388   0.5313388
 TTTTTTTTTTTTTTTTTTTTTTTTTTTTTT MOQGAD      TELAPSE       10.06 TCPU        9.58
 TTTTTTTTTTTTTTTTTTTTTTTTTTTTTT SHELLXN     TELAPSE       10.68 TCPU       10.20
 +++ ENERGIES IN A.U. +++
 ::: EXT EL-POLE                                  -2.5081759333312E+03
 ::: EXT EL-SPHEROPOLE                             2.6668420739863E+01
 ::: BIELET ZONE E-E                               3.8881345236214E+03
 ::: TOTAL E-E                                     1.4066270110300E+03
 ::: TOTAL E-N + N-E                              -8.1561107097360E+03
 ::: TOTAL N-N                                    -2.7708075372650E+02
 ::: KINETIC ENERGY                                3.6390862195797E+03
 ::: PSEUDO TOTAL   ENERGY                        -3.3874782328527E+03
 ::: VIRIAL COEFFICIENT                            1.0358081091308E+00
 TTTTTTTTTTTTTTTTTTTTTTTTTTTTTT MONMO3      TELAPSE       10.88 TCPU       10.40
 NUMERICALLY INTEGRATED DENSITY    479.9999453958
 TTTTTTTTTTTTTTTTTTTTTTTTTTTTTT NUMDFT      TELAPSE       11.18 TCPU       10.70
 CYC   7 ETOT(AU) -3.662052285452E+03 DETOT  4.31E-09 tst  1.32E-11 PX  4.94E-05

 == SCF ENDED - CONVERGENCE ON ENERGY      E(AU) -3.6620522854524E+03 CYCLES   7


 ENERGY EXPRESSION=HARTREE+FOCK EXCH*0.00000+(HSE-3c     EXCH)*1.00000+PBEh-3c    CORR


 TOTAL ENERGY(DFT)(AU)(  7) -3.6620522854524E+03 DE 4.3E-09 tester 1.3E-11
 TTTTTTTTTTTTTTTTTTTTTTTTTTTTTT EDFT        TELAPSE       11.18 TCPU       10.70
 
 INFORMATION **** DFTD3 ENERGY **** CALCULATE DFTD3 ENERGY

           DFT-D V3(BJ)
 DF                                         hse3c     
 parameters
 s6       :    1.0000
 s8       :    0.0000
 a1       :    0.4411
 a2       :    4.5182
 k1 k3    :   16.0000   -4.0000
 Cutoff   :   50.2022
 CN-Cutoff:   21.1671
 
 Edisp /kcal,au:   -62.7671 -0.10002574

 E6    /kcal :   -64.1904
 E8    /kcal :     0.0000
 E6(ABC) "   :   1.423259
 
 INFORMATION **** DFTD3 ENERGY **** NORMAL TERMINATION OF DFTD3 MODULE

 GCP ENERGY CALCULATION
  level           hse3c               basis:hse3c
  Nbf            912
  Atoms          144

  Parameters: 
  sigma     1.0000
  eta       1.4086
  alpha     0.2908
  beta      1.9526

  dmp_scal      4.0000
  dmp_exp       6.0000
 cutoffs: 
   distance [bohr] 60.0
   noise    [a.u.] 2.2E-16
 SR-damping   T
 ** gCP correction **
  Egcp:        0.5711641745 / (a.u.) ||     358.4110 / (kcal/mol)
 INFORMATION **** GCP **** NORMAL TERMINATION OF GCP MODULE

 *******************************************************************************

 DFT-D3-GCP DISPERSION AND COUNTERPOISE CORRECTION

 D3 DISPERSION ENERGY (AU)      -1.0002574041898E-01
 GCP ENERGY (AU)                 5.7116417449867E-01
 TOTAL ENERGY + DISP + GCP (AU) -3.6615811470184E+03

 *******************************************************************************

 EIGENVECTORS IN FORTRAN UNIT 10
 TTTTTTTTTTTTTTTTTTTTTTTTTTTTTT END         TELAPSE       14.18 TCPU       13.64
 EEEEEEEEEE TERMINATION  DATE 25 03 2019 TIME 17:50:47.6
NODE    0 CPU TIME =        13.636
NODE    1 CPU TIME =        13.567
NODE    2 CPU TIME =        13.431
NODE    3 CPU TIME =        13.518
NODE    4 CPU TIME =        13.506
NODE    5 CPU TIME =        13.474
NODE    6 CPU TIME =        13.463
NODE    7 CPU TIME =        13.501
    TOTAL CPU TIME =       108.095
