 PROCESS            4  OF            8  WORKING
 PROCESS            2  OF            8  WORKING
 PROCESS            6  OF            8  WORKING
 PROCESS            0  OF            8  WORKING

         
 *******************************************************************************
 *                                                                             *
 *                               CRYSTAL17                                     *
 *                      public : 1.0.1 - Feb 1st, 2017                         *
 *                       HTTP://WWW.CRYSTAL.UNITO.IT                           *
 *                                                                             *
 *                              MAIN AUTHORS                                   *
 *                                                                             *
 *  R. DOVESI(1,11), V.R. SAUNDERS(2), C. ROETTI(1,11), R. ORLANDO(1,11),      *
 *  C.M. ZICOVICH-WILSON(1,3), F. PASCALE(4), B. CIVALLERI(1,11),              *
 *  K. DOLL(5), N.M. HARRISON(2,6), I.J. BUSH(7), Ph. D'ARCO(8),               *
 *  M. LLUNELL(9), M. CAUSA'(10), Y. NOEL(8), L. MASCHIO(1,11), A. ERBA(1,11)  *
 *  M. RE'RAT(14), S. CASASSA(1,11)                                            *
 *                                                                             *
 *        CONTRIBUTIONS TO THE CODE HAVE ALSO BEEN GIVEN BY                    *
 *                                                                             *
 *  M. FERRABONE(1,11), M. DE LA PIERRE(1,11), M. FERRERO(1,11),               *
 *  J. BAIMA(1,11), E. ALBANESE(1,11), M.F. PEINTINGER(12), R. BAST(13),       *
 *  B. KIRTMAN(15), V. LACIVITA(1,11), R. DEMICHELIS(1,16)                     *
 *  G. BRANDEBURG(17), S. SALUSTRO(1,11), G. SANSONE(1,11)                     *
 *  M.T. RUGGIERO(18)                                                          *
 *                                                                             *
 * (1) THEORETICAL CHEMISTRY GROUP - UNIVERSITA' DI TORINO - TORINO (ITALY)    *

 * (2) COMPUTATIONAL SCIENCE & ENGINEERING DEPARTMENT - STFC DARESBURY (UK)    *
 * (3) UNIVERSIDAD AUTONOMA DEL ESTADO DE MORELOS - CUERNAVACA (MEXICO)        *
 * (4) UNIVERSITE' DE LORRAINE - NANCY (FRANCE)                                *
 * (5) UNIVERSITAET STUTTGART- STUTTGART (GERMANY)                             *
 * (6) IMPERIAL COLLEGE - LONDON (UK)                                          *
 * (7) OXFORD E-RESEARCH CENTRE - OXFORD (UK)                                  *
 * (8) UPMC - SORBONNE UNIVERSITES - PARIS (FRANCE)                            *
 * (9) UNIVERSIDAD DE BARCELONA - BARCELONA (SPAIN)                            *
 *(10) UNIVERSITA' DI NAPOLI "FEDERICO II" - NAPOLI (ITALY)                    *
 *(11) NIS - NANOSTRUCTURED INTERFACES AND SURFACES - TORINO (ITALY)           *
 *(12) MPI FUER CHEMISCHE ENERGIEKONVERSION - MUELHEIM AN DER RUHR (GERMANY)   *
 *(13) UNIVERSITY OF TROMSO - TROMSO (NORWAY)                                  *
 *(14) UNIVERSITE' DE PAU ET DES PAYS DE L'ADOUR - PAU (FRANCE)                *
 *(15) UNIVERSITY OF CALIFORNIA SANTA BARBARA - SANTA BARBARA (USA)            *
 *(16) CURTIN UNIVERSITY - PERTH (AUSTRALIA)                                   *
 *(17) UNIVERSITY COLLEGE LONDON - LONDON (UK)                                 *
 *(18) CAMBRIDGE UNIVERSITY - CAMBRIDGE (UK)                                   *
 *                                                                             *
 *******************************************************************************
 EEEEEEEEEE STARTING  DATE 25 03 2019 TIME 17:51:20.6
 !drive by JGB                                                                   
 PROCESS            1  OF            8  WORKING
 PROCESS            3  OF            8  WORKING

 CRYSTAL CALCULATION
 (INPUT ACCORDING TO THE INTERNATIONAL TABLES FOR X-RAY CRYSTALLOGRAPHY)
 CRYSTAL FAMILY                       :  HEXAGONAL   
 CRYSTAL CLASS  (GROTH - 1921)        :  TRIGONAL RHOMBOHEDRAL                

 SPACE GROUP (CENTROSYMMETRIC)        :  R -3            

 LATTICE PARAMETERS  (ANGSTROMS AND DEGREES) - CONVENTIONAL CELL
        A           B           C        ALPHA        BETA       GAMMA
    12.73609    12.73609     6.23930    90.00000    90.00000   120.00000


 NUMBER OF IRREDUCIBLE ATOMS IN THE CONVENTIONAL CELL:    6

 INPUT COORDINATES

 ATOM AT. N.              COORDINATES
   1   8     9.697889768938E-01  1.908017167942E-01  4.479895038690E-02
   2   8     2.275270684023E-01  1.874604856813E-01  5.287016435629E-01
   3   1     4.542028593904E-02  1.975664378553E-01  9.900767431171E-01
   4   1     9.877911030327E-01  2.122887378064E-01  1.960511399781E-01
   5   1     2.107645135622E-01  1.033128904479E-01  5.216303299502E-01
   6   1     3.024599632051E-01  2.356423389128E-01  4.483243627321E-01

 *******************************************************************************

 << INFORMATION >>: FROM NOW ON, ALL COORDINATES REFER TO THE PRIMITIVE CELL

 *******************************************************************************

 LATTICE PARAMETERS  (ANGSTROMS AND DEGREES) - PRIMITIVE CELL
       A          B          C        ALPHA      BETA     GAMMA        VOLUME
    7.64165    7.64165    7.64165   112.88555 112.88555 112.88555    292.157933

 COORDINATES OF THE EQUIVALENT ATOMS (FRACTIONAL UNITS)

 N. ATOM EQUIV AT. N.          X                  Y                  Z

   1   1   1    8 O     1.45879272807E-02  2.65811690287E-01 -1.46002766407E-01
   2   1   2    8 O    -1.46002766407E-01  1.45879272807E-02  2.65811690287E-01
   3   1   3    8 O     2.65811690287E-01 -1.46002766407E-01  1.45879272807E-02
   4   1   4    8 O    -1.45879272807E-02 -2.65811690287E-01  1.46002766407E-01
   5   1   5    8 O     1.46002766407E-01 -1.45879272807E-02 -2.65811690287E-01
   6   1   6    8 O    -2.65811690287E-01  1.46002766407E-01 -1.45879272807E-02

   7   2   1    8 O    -2.43771288035E-01  4.88635060842E-01  3.41241157882E-01
   8   2   2    8 O     3.41241157882E-01 -2.43771288035E-01  4.88635060842E-01
   9   2   3    8 O     4.88635060842E-01  3.41241157882E-01 -2.43771288035E-01
  10   2   4    8 O     2.43771288035E-01 -4.88635060842E-01 -3.41241157882E-01
  11   2   5    8 O    -3.41241157882E-01  2.43771288035E-01 -4.88635060842E-01
  12   2   6    8 O    -4.88635060842E-01 -3.41241157882E-01  2.43771288035E-01

  13   3   1    1 H     3.54970290561E-02  1.42222895033E-01 -2.07489694738E-01
  14   3   2    1 H    -2.07489694738E-01  3.54970290561E-02  1.42222895033E-01
  15   3   3    1 H     1.42222895033E-01 -2.07489694738E-01  3.54970290561E-02
  16   3   4    1 H    -3.54970290561E-02 -1.42222895033E-01  2.07489694738E-01
  17   3   5    1 H     2.07489694738E-01 -3.54970290561E-02 -1.42222895033E-01
  18   3   6    1 H    -1.42222895033E-01  2.07489694738E-01 -3.54970290561E-02

  19   4   1    1 H     1.83842243011E-01  4.20548774752E-01 -1.62375978283E-02
  20   4   2    1 H    -1.62375978283E-02  1.83842243011E-01  4.20548774752E-01
  21   4   3    1 H     4.20548774752E-01 -1.62375978283E-02  1.83842243011E-01
  22   4   4    1 H    -1.83842243011E-01 -4.20548774752E-01  1.62375978283E-02
  23   4   5    1 H     1.62375978283E-02 -1.83842243011E-01 -4.20548774752E-01
  24   4   6    1 H    -4.20548774752E-01  1.62375978283E-02 -1.83842243011E-01

  25   5   1    1 H    -2.67605156488E-01  4.14178706836E-01  4.18317439502E-01
  26   5   2    1 H     4.18317439502E-01 -2.67605156488E-01  4.14178706836E-01
  27   5   3    1 H     4.14178706836E-01  4.18317439502E-01 -2.67605156488E-01
  28   5   4    1 H     2.67605156488E-01 -4.14178706836E-01 -4.18317439502E-01
  29   5   5    1 H    -4.18317439502E-01  2.67605156488E-01 -4.14178706836E-01
  30   5   6    1 H    -4.14178706836E-01 -4.18317439502E-01  2.67605156488E-01

  31   6   1    1 H    -2.49215674063E-01  3.81506738440E-01  2.12682023819E-01
  32   6   2    1 H     2.12682023819E-01 -2.49215674063E-01  3.81506738440E-01
  33   6   3    1 H     3.81506738440E-01  2.12682023819E-01 -2.49215674063E-01
  34   6   4    1 H     2.49215674063E-01 -3.81506738440E-01 -2.12682023819E-01
  35   6   5    1 H    -2.12682023819E-01  2.49215674063E-01 -3.81506738440E-01
  36   6   6    1 H    -3.81506738440E-01 -2.12682023819E-01  2.49215674063E-01

 NUMBER OF SYMMETRY OPERATORS         :    6
 *******************************************************************************
 * GEOMETRY EDITING - INPUT COORDINATES ARE GIVEN IN ANGSTROM         
 *******************************************************************************
 PROCESS            7  OF            8  WORKING

 GEOMETRY NOW FULLY CONSISTENT WITH THE GROUP

 GCALCO - MAX INDICES DIRECT LATTICE VECTOR    14    14    14
 NO.OF VECTORS CREATED 6999 STARS  589 RMAX   148.44108 BOHR

 GEOMETRY FOR WAVE FUNCTION - DIMENSIONALITY OF THE SYSTEM    3
 (NON PERIODIC DIRECTION: LATTICE PARAMETER FORMALLY SET TO 500)
 *******************************************************************************
 LATTICE PARAMETERS (ANGSTROMS AND DEGREES) - BOHR = 0.5291772083 ANGSTROM
 PRIMITIVE CELL - CENTRING CODE 7/0 VOLUME=   292.157933 - DENSITY  1.228 g/cm^3
         A              B              C           ALPHA      BETA       GAMMA 
     7.64164718     7.64164718     7.64164718   112.885551 112.885551 112.885551
 *******************************************************************************
 ATOMS IN THE ASYMMETRIC UNIT    6 - ATOMS IN THE UNIT CELL:   36
     ATOM                 X/A                 Y/B                 Z/C    
 *******************************************************************************
      1 T   8 O     1.458792728072E-02  2.658116902873E-01 -1.460027664073E-01
      2 F   8 O    -1.460027664073E-01  1.458792728072E-02  2.658116902873E-01
      3 F   8 O     2.658116902873E-01 -1.460027664073E-01  1.458792728072E-02
      4 F   8 O    -1.458792728072E-02 -2.658116902873E-01  1.460027664073E-01
      5 F   8 O     1.460027664073E-01 -1.458792728072E-02 -2.658116902873E-01
      6 F   8 O    -2.658116902873E-01  1.460027664073E-01 -1.458792728072E-02
      7 T   8 O    -2.437712880348E-01  4.886350608419E-01  3.412411578816E-01
      8 F   8 O     3.412411578816E-01 -2.437712880348E-01  4.886350608419E-01
      9 F   8 O     4.886350608419E-01  3.412411578816E-01 -2.437712880348E-01
     10 F   8 O     2.437712880348E-01 -4.886350608419E-01 -3.412411578816E-01
     11 F   8 O    -3.412411578816E-01  2.437712880348E-01 -4.886350608419E-01
     12 F   8 O    -4.886350608419E-01 -3.412411578816E-01  2.437712880348E-01
     13 T   1 H     3.549702905610E-02  1.422228950333E-01 -2.074896947382E-01
     14 F   1 H    -2.074896947382E-01  3.549702905610E-02  1.422228950333E-01
     15 F   1 H     1.422228950333E-01 -2.074896947382E-01  3.549702905610E-02
     16 F   1 H    -3.549702905610E-02 -1.422228950333E-01  2.074896947382E-01
     17 F   1 H     2.074896947382E-01 -3.549702905610E-02 -1.422228950333E-01
     18 F   1 H    -1.422228950333E-01  2.074896947382E-01 -3.549702905610E-02
     19 T   1 H     1.838422430108E-01  4.205487747518E-01 -1.623759782830E-02
     20 F   1 H    -1.623759782830E-02  1.838422430108E-01  4.205487747518E-01
     21 F   1 H     4.205487747518E-01 -1.623759782830E-02  1.838422430108E-01
     22 F   1 H    -1.838422430108E-01 -4.205487747518E-01  1.623759782830E-02
     23 F   1 H     1.623759782830E-02 -1.838422430108E-01 -4.205487747518E-01
     24 F   1 H    -4.205487747518E-01  1.623759782830E-02 -1.838422430108E-01
     25 T   1 H    -2.676051564876E-01  4.141787068359E-01  4.183174395023E-01
     26 F   1 H     4.183174395023E-01 -2.676051564876E-01  4.141787068359E-01
     27 F   1 H     4.141787068359E-01  4.183174395023E-01 -2.676051564876E-01
     28 F   1 H     2.676051564876E-01 -4.141787068359E-01 -4.183174395023E-01
     29 F   1 H    -4.183174395023E-01  2.676051564876E-01 -4.141787068359E-01
     30 F   1 H    -4.141787068359E-01 -4.183174395023E-01  2.676051564876E-01
     31 T   1 H    -2.492156740628E-01  3.815067384398E-01  2.126820238193E-01
     32 F   1 H     2.126820238193E-01 -2.492156740628E-01  3.815067384398E-01
     33 F   1 H     3.815067384398E-01  2.126820238193E-01 -2.492156740628E-01
     34 F   1 H     2.492156740628E-01 -3.815067384398E-01 -2.126820238193E-01
     35 F   1 H    -2.126820238193E-01  2.492156740628E-01 -3.815067384398E-01
     36 F   1 H    -3.815067384398E-01 -2.126820238193E-01  2.492156740628E-01

 TRANSFORMATION MATRIX PRIMITIVE-CRYSTALLOGRAPHIC CELL
  1.0000  0.0000  1.0000 -1.0000  1.0000  1.0000  0.0000 -1.0000  1.0000

 *******************************************************************************
 CRYSTALLOGRAPHIC CELL (VOLUME=        876.47380021)
         A              B              C           ALPHA      BETA       GAMMA 
    12.73609122    12.73609122     6.23930168    90.000000  90.000000 120.000000

 COORDINATES IN THE CRYSTALLOGRAPHIC CELL
     ATOM                 X/A                 Y/B                 Z/C    
 *******************************************************************************
      1 T   8 O    -3.021102310618E-02  1.908017167942E-01  4.479895038690E-02
      2 F   8 O    -1.908017167942E-01 -2.210127399004E-01  4.479895038690E-02
      3 F   8 O     2.210127399004E-01  3.021102310618E-02  4.479895038690E-02
      4 F   8 O     3.021102310618E-02 -1.908017167942E-01 -4.479895038690E-02
      5 F   8 O     1.908017167942E-01  2.210127399004E-01 -4.479895038690E-02
      6 F   8 O    -2.210127399004E-01 -3.021102310618E-02 -4.479895038690E-02
      7 T   8 O     2.275270684023E-01  1.874604856813E-01 -4.712983564371E-01
      8 F   8 O    -1.874604856813E-01  4.006658272100E-02 -4.712983564371E-01
      9 F   8 O    -4.006658272100E-02 -2.275270684023E-01 -4.712983564371E-01
     10 F   8 O    -2.275270684023E-01 -1.874604856813E-01  4.712983564371E-01
     11 F   8 O     1.874604856813E-01 -4.006658272100E-02  4.712983564371E-01
     12 F   8 O     4.006658272100E-02  2.275270684023E-01  4.712983564371E-01
     13 T   1 H     4.542028593904E-02  1.975664378553E-01 -9.923256882935E-03
     14 F   1 H    -1.975664378553E-01 -1.521461519163E-01 -9.923256882935E-03
     15 F   1 H     1.521461519163E-01 -4.542028593904E-02 -9.923256882935E-03
     16 F   1 H    -4.542028593904E-02 -1.975664378553E-01  9.923256882935E-03
     17 F   1 H     1.975664378553E-01  1.521461519163E-01  9.923256882935E-03
     18 F   1 H    -1.521461519163E-01  4.542028593904E-02  9.923256882935E-03
     19 T   1 H    -1.220889696730E-02  2.122887378064E-01  1.960511399781E-01
     20 F   1 H    -2.122887378064E-01 -2.244976347737E-01  1.960511399781E-01
     21 F   1 H     2.244976347737E-01  1.220889696730E-02  1.960511399781E-01
     22 F   1 H     1.220889696730E-02 -2.122887378064E-01 -1.960511399781E-01
     23 F   1 H     2.122887378064E-01  2.244976347737E-01 -1.960511399781E-01
     24 F   1 H    -2.244976347737E-01 -1.220889696730E-02 -1.960511399781E-01
     25 T   1 H     2.107645135622E-01  1.033128904479E-01 -4.783696700498E-01
     26 F   1 H    -1.033128904479E-01  1.074516231143E-01 -4.783696700498E-01
     27 F   1 H    -1.074516231143E-01 -2.107645135622E-01 -4.783696700498E-01
     28 F   1 H    -2.107645135622E-01 -1.033128904479E-01  4.783696700498E-01
     29 F   1 H     1.033128904479E-01 -1.074516231143E-01  4.783696700498E-01
     30 F   1 H     1.074516231143E-01  2.107645135622E-01  4.783696700498E-01
     31 T   1 H    -3.642067034616E-01 -9.769099442050E-02  1.149910293988E-01
     32 F   1 H     9.769099442050E-02 -2.665157090411E-01  1.149910293988E-01
     33 F   1 H     2.665157090411E-01  3.642067034616E-01  1.149910293988E-01
     34 F   1 H     3.642067034616E-01  9.769099442050E-02 -1.149910293988E-01
     35 F   1 H    -9.769099442050E-02  2.665157090411E-01 -1.149910293988E-01
     36 F   1 H    -2.665157090411E-01 -3.642067034616E-01 -1.149910293988E-01

 T = ATOM BELONGING TO THE ASYMMETRIC UNIT

 ****    6 SYMMOPS - TRANSLATORS IN FRACTIONAL UNITS
 **** MATRICES AND TRANSLATORS IN THE CRYSTALLOGRAPHIC REFERENCE FRAME
   V INV                    ROTATION MATRICES                   TRANSLATORS
   1   1  1.00  0.00  0.00  0.00  1.00  0.00  0.00  0.00  1.00  0.00  0.00  0.00
   2   3 -0.00 -0.00  1.00  1.00 -0.00  0.00  0.00  1.00 -0.00  0.00  0.00  0.00
   3   2 -0.00  1.00 -0.00  0.00 -0.00  1.00  1.00  0.00 -0.00  0.00  0.00  0.00
   4   4 -1.00  0.00  0.00  0.00 -1.00  0.00  0.00  0.00 -1.00  0.00  0.00  0.00
   5   6  0.00  0.00 -1.00 -1.00  0.00  0.00 -0.00 -1.00  0.00  0.00  0.00  0.00
   6   5  0.00 -1.00  0.00 -0.00  0.00 -1.00 -1.00  0.00  0.00  0.00  0.00  0.00

 DIRECT LATTICE VECTORS CARTESIAN COMPONENTS (ANGSTROM)
          X                    Y                    Z
   0.735318569429E+01   0.000000000000E+00   0.207976722667E+01
  -0.367659284715E+01   0.636804561000E+01   0.207976722667E+01
  -0.367659284715E+01  -0.636804561000E+01   0.207976722667E+01


 CARTESIAN COORDINATES - PRIMITIVE CELL
 *******************************************************************************
 *      ATOM          X(ANGSTROM)         Y(ANGSTROM)         Z(ANGSTROM)
 *******************************************************************************
    1     8 O    -3.332208943714E-01  2.622453243088E+00  2.795141664112E-01
    2     8 O    -2.104500681566E+00 -1.599804381142E+00  2.795141664112E-01
    3     8 O     2.437721575937E+00 -1.022648861947E+00  2.795141664112E-01
    4     8 O     3.332208943714E-01 -2.622453243088E+00 -2.795141664112E-01
    5     8 O     2.104500681566E+00  1.599804381142E+00 -2.795141664112E-01
    6     8 O    -2.437721575937E+00  1.022648861947E+00 -2.795141664112E-01
    7     8 O     2.509573176660E+00  9.386110966871E-01 -2.940572627099E+00
    8     8 O    -2.067647642335E+00  1.704048575300E+00 -2.940572627099E+00
    9     8 O    -4.419255343248E-01 -2.642659671987E+00 -2.940572627099E+00
   10     8 O    -2.509573176660E+00 -9.386110966871E-01  2.940572627099E+00
   11     8 O     2.067647642335E+00 -1.704048575300E+00  2.940572627099E+00
   12     8 O     4.419255343248E-01  2.642659671987E+00  2.940572627099E+00
   13     1 H     5.009756951963E-01  2.226985722057E+00 -6.191419334077E-02
   14     1 H    -2.179114056764E+00 -6.796351823097E-01 -6.191419334077E-02
   15     1 H     1.678138361568E+00 -1.547350539747E+00 -6.191419334077E-02
   16     1 H    -5.009756951963E-01 -2.226985722057E+00  6.191419334077E-02
   17     1 H     2.179114056764E+00  6.796351823097E-01  6.191419334077E-02
   18     1 H    -1.678138361568E+00  1.547350539747E+00  6.191419334077E-02
   19     1 H    -1.346614297845E-01  2.781475542417E+00  1.223222207031E+00
   20     1 H    -2.341497764846E+00 -1.507357990312E+00  1.223222207031E+00
   21     1 H     2.476159194630E+00 -1.274117552105E+00  1.223222207031E+00
   22     1 H     1.346614297845E-01 -2.781475542417E+00 -1.223222207031E+00
   23     1 H     2.341497764846E+00  1.507357990312E+00 -1.223222207031E+00
   24     1 H    -2.476159194630E+00  1.274117552105E+00 -1.223222207031E+00
   25     1 H     2.324685908985E+00 -2.635563838723E-02 -2.984692686003E+00
   26     1 H    -1.139518302116E+00  2.026414872194E+00 -2.984692686003E+00
   27     1 H    -1.185167606869E+00 -2.000059233807E+00 -2.984692686003E+00
   28     1 H    -2.324685908985E+00  2.635563838723E-02  2.984692686003E+00
   29     1 H     1.139518302116E+00 -2.026414872194E+00  2.984692686003E+00
   30     1 H     1.185167606869E+00  2.000059233807E+00  2.984692686003E+00
   31     1 H    -4.017119282488E+00  1.075083482799E+00  7.174637229127E-01
   32     1 H     1.077510033951E+00 -4.016469090066E+00  7.174637229127E-01
   33     1 H     2.939609248537E+00  2.941385607267E+00  7.174637229127E-01
   34     1 H     4.017119282488E+00 -1.075083482799E+00 -7.174637229127E-01
   35     1 H    -1.077510033951E+00  4.016469090066E+00 -7.174637229127E-01
   36     1 H    -2.939609248537E+00 -2.941385607267E+00 -7.174637229127E-01

 *******************************************************************************
 STARTING BASIS SET HANDLING 
 *******************************************************************************

 Loading internal basis set: DEF2-MSVP           

 Please cite in your publication:
 Fully Optimized Contracted Gaussian Basis Sets for Atoms Li to Kr. A. Schäfer, 
 H. Horn and R. Ahlrichs; J. Chem. Phys. 97, 2571 (1992).                       
                                                                                
                    
 S. Grimme, J. G. Brandenburg, C. Bannwarth, and A. Hansen, J. Chem. Phys., 143,
  054107 (2015).                                                                
                                                                                
                    

 *******************************************************************************
 LOCAL ATOMIC FUNCTIONS BASIS SET
 *******************************************************************************
   ATOM   X(AU)   Y(AU)   Z(AU)  N. TYPE  EXPONENT  S COEF   P COEF   D/F/G COEF
 *******************************************************************************
   1 O   -0.630   4.956   0.528
                                  1 S  
                                         6.773E+03 1.727E-03 0.000E+00 0.000E+00
                                         1.017E+03 1.325E-02 0.000E+00 0.000E+00
                                         2.313E+02 6.603E-02 0.000E+00 0.000E+00
                                         6.501E+01 2.353E-01 0.000E+00 0.000E+00
                                         2.050E+01 5.498E-01 0.000E+00 0.000E+00
                                  2 S  
                                         6.716E+00 1.000E+00 0.000E+00 0.000E+00
                                  3 S  
                                         1.147E+00 1.000E+00 0.000E+00 0.000E+00
                                  4 S  
                                         3.342E-01 1.000E+00 0.000E+00 0.000E+00
                           5-     7 P  
                                         1.769E+01 0.000E+00 4.359E-02 0.000E+00
                                         3.854E+00 0.000E+00 2.318E-01 0.000E+00
                                         1.047E+00 0.000E+00 5.146E-01 0.000E+00
                           8-    10 P  
                                         2.759E-01 0.000E+00 1.000E+00 0.000E+00
                          11-    15 D  
                                         8.000E-01 0.000E+00 0.000E+00 1.000E+00
   2 O   -3.977  -3.023   0.528
   3 O    4.607  -1.933   0.528
   4 O    0.630  -4.956  -0.528
   5 O    3.977   3.023  -0.528
   6 O   -4.607   1.933  -0.528
   7 O    4.742   1.774  -5.557
   8 O   -3.907   3.220  -5.557
   9 O   -0.835  -4.994  -5.557
  10 O   -4.742  -1.774   5.557
  11 O    3.907  -3.220   5.557
  12 O    0.835   4.994   5.557
  13 H    0.947   4.208  -0.117
                                181 S  
                                         1.874E+01 1.968E-02 0.000E+00 0.000E+00
                                         2.826E+00 1.380E-01 0.000E+00 0.000E+00
                                         6.401E-01 4.783E-01 0.000E+00 0.000E+00
                                182 S  
                                         1.756E-01 1.000E+00 0.000E+00 0.000E+00
  14 H   -4.118  -1.284  -0.117
  15 H    3.171  -2.924  -0.117
  16 H   -0.947  -4.208   0.117
  17 H    4.118   1.284   0.117
  18 H   -3.171   2.924   0.117
  19 H   -0.254   5.256   2.312
  20 H   -4.425  -2.848   2.312
  21 H    4.679  -2.408   2.312
  22 H    0.254  -5.256  -2.312
  23 H    4.425   2.848  -2.312
  24 H   -4.679   2.408  -2.312
  25 H    4.393  -0.050  -5.640
  26 H   -2.153   3.829  -5.640
  27 H   -2.240  -3.780  -5.640
  28 H   -4.393   0.050   5.640
  29 H    2.153  -3.829   5.640
  30 H    2.240   3.780   5.640
  31 H   -7.591   2.032   1.356
  32 H    2.036  -7.590   1.356
  33 H    5.555   5.558   1.356
  34 H    7.591  -2.032  -1.356
  35 H   -2.036   7.590  -1.356
  36 H   -5.555  -5.558  -1.356

 *******************************************************************************
 FINISHED BASIS SET HANDLING 
 *******************************************************************************

 INFORMATION **** SET_MPP **** PCRYSTAL CALCULATION
 INFORMATION **** READM2 **** NEW DEFAULT: FOCK/KS MATRIX MIXING SET TO 30 %
 INFORMATION **** READM2 **** NEW DEFAULT: FULL DIRECT SCF MODE
 INFORMATION **** READM2 **** NEW DEFAULT: COULOMB BIPOLAR BUFFER SET TO 32 Mb
 INFORMATION **** READM2 **** NEW DEFAULT: EXCHANGE BIPOLAR BUFFER SET TO 32 Mb

 *******************************************************************************
 NEW DEFAULT: DFT INTEGRATION GRID INCREASED TO XLGRID
 NEW DEFAULT: DIIS ACCELERATOR ACTIVE
 USE KEYWORD NODIIS TO TURN IT OFF
 *******************************************************************************

 INFORMATION **** RDDFTP **** HSE-3c calculation
 INFORMATION **** RDDFTP **** HSE screened hybrid functional combined with D3 and gCP

PLEASE CITE:
(1) HSE-3c Reference
 J. G. Brandenburg, E. Caldeweyer, and S. Grimme, 
 Phys. Chem. Chem. Phys. 18, 15519 (2016)
(2) DFT-D3 Reference
 S. Grimme, J. Antony, S. Ehrlich,
 and H. Krieg, J. Chem. Phys. 132, 154104 (2010)
(3) gCP Reference
 H. Kruse and S. Grimme J. Chem. Phys, 136, 154101 (2012)
 J. G. Brandenburg, M. Alessio, B. Civalleri, M. F. Peintinger
 T. Bredow, and S. Grimme, J. Phys. Chem. A, 117, 9282 (2013) 

 WARNING **** RDDFTP **** HSE3c-HJS ACTIVE
 RANGE SEPARATION - OMEGA:   0.110000000000000     
 WARNING **** RDDFTP **** HSE-3c has to be combined with def2-mSVP basis set
 WARNING **** RDDFTP **** Note: Harmonic frequencies are scaled by 0.95
 WARNING **** RDDFTP **** as recommended in original publication
 INFORMATION **** BIPOSIZE **** COULOMB BIPOLAR BUFFER SET TO    60000000
 INFORMATION **** EXCHSIZE **** EXCHANGE BIPOLAR BUFFER SIZE SET TO    40000000
 *******************************************************************************
 N. OF ATOMS PER CELL        36  COULOMB OVERLAP TOL         (T1) 10**   -6
 NUMBER OF SHELLS           132  COULOMB PENETRATION TOL     (T2) 10**   -6
 NUMBER OF AO               228  EXCHANGE OVERLAP TOL        (T3) 10**   -6
 N. OF ELECTRONS PER CELL   120  EXCHANGE PSEUDO OVP (F(G))  (T4) 10**   -6
 CORE ELECTRONS PER CELL     24  EXCHANGE PSEUDO OVP (P(G))  (T5) 10**  -12
 N. OF SYMMETRY OPERATORS     6  POLE ORDER IN MONO ZONE                  4
 *******************************************************************************
 TYPE OF CALCULATION :  RESTRICTED CLOSED SHELL
 KOHN-SHAM HAMILTONIAN

 (EXCHANGE)[CORRELATION] FUNCTIONAL:(HSE-3c)[PBEh-3c]

 RANGE-SEPARATED HYBRID FUNCTIONAL 
 OMEGA (SHORT-RANGE)[LONG-RANGE]:(    0.1100)[    0.0000]

 HYBRID EXCHANGE - PERCENTAGE OF FOCK EXCHANGE    42.0000

 CAPPA:IS1  2;IS2  2;IS3  2; K PTS MONK NET   4; SYMMOPS:K SPACE   6;G SPACE   6

 *******************************************************************************
 MAX NUMBER OF SCF CYCLES      50  CONVERGENCE ON DELTAP        10**-16
 WEIGHT OF F(I) IN F(I+1)      30% CONVERGENCE ON ENERGY        10**- 6
 S(K) EIGENV. THRESHOLD  10*10.**-4
 SHRINK. FACT.(MONKH.)    2  2  2  NUMBER OF K POINTS IN THE IBZ      4
 SHRINKING FACTOR(GILAT NET)    2  NUMBER OF K POINTS(GILAT NET)      4
 *******************************************************************************
 *** K POINTS COORDINATES (OBLIQUE COORDINATES IN UNITS OF IS =  2)
   1-R(  0  0  0)   2-R(  1  0  0)   3-R(  1  1  0)   4-R(  1  1  1)

 DIRECT LATTICE VECTORS COMPON. (A.U.)     RECIP. LATTICE VECTORS COMPON. (A.U.) 
        X            Y            Z              X            Y            Z
   13.8955072    0.0000000    3.9301905      0.3014492    0.0000000    0.5328991
   -6.9477536   12.0338622    3.9301905     -0.1507246    0.2610627    0.5328991
   -6.9477536  -12.0338622    3.9301905     -0.1507246   -0.2610627    0.5328991

 DISK SPACE FOR EIGENVECTORS (FTN 10)      207936 REALS

 SYMMETRY ADAPTION OF THE BLOCH FUNCTIONS ENABLED
 PROCESS            5  OF            8  WORKING
 TTTTTTTTTTTTTTTTTTTTTTTTTTTTTT gordsh1     TELAPSE        0.11 TCPU        0.05

 MATRIX SIZE: P(G)  143958, F(G)   25419, P(G) IRR   12208, F(G) IRR    4296
 MAX G-VECTOR INDEX FOR 1- AND 2-ELECTRON INTEGRALS  59

 TTTTTTTTTTTTTTTTTTTTTTTTTTTTTT INPUT       TELAPSE        0.12 TCPU        0.05

 NEIGHBORS OF THE NON-EQUIVALENT ATOMS

 N = NUMBER OF NEIGHBORS AT DISTANCE R
    ATOM  N     R/ANG      R/AU   NEIGHBORS (ATOM LABELS AND CELL INDICES)
   1 O    1     0.9774     1.8470   19 H    0 0 0
   1 O    1     0.9843     1.8601   13 H    0 0 0
   1 O    1     1.7355     3.2796   18 H    0 0 0
   1 O    1     1.8685     3.5309   35 H    0 0 0
   1 O    2     2.7020     5.1060    5 O    0 0 0    6 O    0 0 0
   1 O    1     2.7717     5.2378   12 O    0 0 0

   7 O    1     0.9763     1.8450   31 H    0-1-1
   7 O    1     0.9835     1.8586   25 H    0 0 0
   7 O    1     1.7261     3.2618   30 H   -1-1-1
   7 O    1     1.8169     3.4334   23 H    0 0 0
   7 O    2     2.7032     5.1083   11 O   -1-1-1   12 O   -1-1-1
   7 O    1     2.7717     5.2378    5 O    0 0 0

  13 H    1     0.9843     1.8601    1 O    0 0 0
  13 H    1     1.5372     2.9049   19 H    0 0 0
  13 H    1     1.7355     3.2796    5 O    0 0 0
  13 H    2     2.2860     4.3199   17 H    0 0 0   18 H    0 0 0
  13 H    1     2.2922     4.3316   23 H    0 0 0
  13 H    1     2.4746     4.6763   35 H    0 0 0

  19 H    1     0.9774     1.8470    1 O    0 0 0
  19 H    1     1.5372     2.9049   13 H    0 0 0
  19 H    1     1.8169     3.4334   12 O    0 0 0
  19 H    1     2.2922     4.3316   18 H    0 0 0
  19 H    1     2.3357     4.4138   30 H    0 0 0
  19 H    1     2.3888     4.5142   26 H    1 1 1

  25 H    1     0.9835     1.8586    7 O    0 0 0
  25 H    1     1.5637     2.9550   31 H    0-1-1
  25 H    1     1.7261     3.2618   11 O   -1-1-1
  25 H    1     2.3357     4.4138   23 H    0 0 0
  25 H    2     2.3405     4.4228   29 H   -1-1-1   30 H   -1-1-1
  25 H    1     2.3488     4.4387   35 H    0-1 0

  31 H    1     0.9763     1.8450    7 O    0 1 1
  31 H    1     1.5637     2.9550   25 H    0 1 1
  31 H    1     1.8685     3.5309    6 O    0 0 0
  31 H    1     2.3488     4.4387   30 H   -1 0 0
  31 H    1     2.4697     4.6670   23 H    0 1 1
  31 H    1     2.4746     4.6763   18 H    0 0 0


 SYMMETRY ALLOWED INTERNAL DEGREE(S) OF FREEDOM:  18
 TTTTTTTTTTTTTTTTTTTTTTTTTTTTTT SYMM        TELAPSE        0.19 TCPU        0.13
 TTTTTTTTTTTTTTTTTTTTTTTTTTTTTT INT_SCREEN  TELAPSE        0.20 TCPU        0.13

 DFT PARAMETERS

     ATOM       ELECTRONS   NET CHARGE   R(ANGSTROM)
   1   8  O       8.0000      0.0000     0.74000000
  13   1  H       1.0000      0.0000     1.11000000

 SIZE OF GRID=     131143
 TTTTTTTTTTTTTTTTTTTTTTTTTTTTTT MAKE_GRID2  TELAPSE        2.81 TCPU        2.74
 BECKE WEIGHT FUNCTION
 RADSAFE =     2.00
 TOLERANCES - DENSITY:10**- 6; POTENTIAL:10**- 9; GRID WGT:10**-14

 RADIAL INTEGRATION  - INTERVALS (POINTS,UPPER LIMIT):            1( 75,  4.0*R)

 ANGULAR INTEGRATION - INTERVALS (ACCURACY LEVEL [N. POINTS] UPPER LIMIT):
  1(  4[  86]   0.2)  2(  8[ 194]   0.5)  3( 12[ 350]   0.9)  4( 16[ 974]   3.5)
  5( 12[ 350]9999.0)
 TTTTTTTTTTTTTTTTTTTTTTTTTTTTTT INT_CALC    TELAPSE        2.83 TCPU        2.76
 EEEEEEEEEE INT_CALC TERMINATION  DATE 25 03 2019 TIME 17:51:23.4

 *******************************************************************************
 !drive by JGB                                                                   
 CRYSTAL - SCF - TYPE OF CALCULATION :  RESTRICTED CLOSED SHELL
 *******************************************************************************

 CAPPA:IS1  2;IS2  2;IS3  2; K PTS MONK NET   4; SYMMOPS:K SPACE   6;G SPACE   6

 TTTTTTTTTTTTTTTTTTTTTTTTTTTTTT SDIK        TELAPSE        2.91 TCPU        2.81

 AAAAAAAAAAAAAAAAAAAAAAAAAAAAAAAAAAAAAAAAAAAAAAAAAAAAAAAAAAAAAAAAAAAAAAAAAAAAAAA
         ATOMIC WAVEFUNCTION(S)


 NUCLEAR CHARGE  8.0  SYMMETRY SPECIES            S    P
 N. ELECTRONS    8.0  NUMBER OF PRIMITIVE GTOS    8    4
                      NUMBER OF CONTRACTED GTOS   4    2
                      NUMBER OF CLOSED SHELLS     2    0
                      OPEN SHELL OCCUPATION       0    4

  ZNUC SCFIT  TOTAL HF ENERGY   KINETIC ENERGY   VIRIAL THEOREM ACCURACY
   8.0  12   -7.477373220E+01  7.477365593E+01 -2.000001020E+00  3.8E-06

 NUCLEAR CHARGE  1.0  SYMMETRY SPECIES            S
 N. ELECTRONS    1.0  NUMBER OF PRIMITIVE GTOS    4
                      NUMBER OF CONTRACTED GTOS   2
                      NUMBER OF CLOSED SHELLS     0
                      OPEN SHELL OCCUPATION       1

  ZNUC SCFIT  TOTAL HF ENERGY   KINETIC ENERGY   VIRIAL THEOREM ACCURACY
   1.0   1   -4.977266687E-01  5.190767460E-01 -1.958869132E+00  1.8E-16

 AAAAAAAAAAAAAAAAAAAAAAAAAAAAAAAAAAAAAAAAAAAAAAAAAAAAAAAAAAAAAAAAAAAAAAAAAAAAAAA

 CHARGE NORMALIZATION FACTOR   1.00000000
 TOTAL ATOMIC CHARGES:
   8.0000000   8.0000000   8.0000000   8.0000000   8.0000000   8.0000000
   8.0000000   8.0000000   8.0000000   8.0000000   8.0000000   8.0000000
   1.0000000   1.0000000   1.0000000   1.0000000   1.0000000   1.0000000
   1.0000000   1.0000000   1.0000000   1.0000000   1.0000000   1.0000000
   1.0000000   1.0000000   1.0000000   1.0000000   1.0000000   1.0000000
   1.0000000   1.0000000   1.0000000   1.0000000   1.0000000   1.0000000
 TTTTTTTTTTTTTTTTTTTTTTTTTTTTTT MOQGAD      TELAPSE        3.27 TCPU        3.16
 TTTTTTTTTTTTTTTTTTTTTTTTTTTTTT SHELLXN     TELAPSE        7.62 TCPU        7.50
 TTTTTTTTTTTTTTTTTTTTTTTTTTTTTT MONMO3      TELAPSE        7.86 TCPU        7.74
 NUMERICALLY INTEGRATED DENSITY    120.0000125382
 TTTTTTTTTTTTTTTTTTTTTTTTTTTTTT NUMDFT      TELAPSE        8.19 TCPU        8.07
 CYC   0 ETOT(AU) -9.158302580739E+02 DETOT -9.16E+02 tst  0.00E+00 PX  1.00E+00
 TTTTTTTTTTTTTTTTTTTTTTTTTTTTTT DIIS        TELAPSE        8.19 TCPU        8.07
 TTTTTTTTTTTTTTTTTTTTTTTTTTTTTT FDIK        TELAPSE       20.19 TCPU       12.83
 INSULATING STATE
 TOP OF VALENCE BANDS -    BAND     60; K    4; EIG -4.1369400E-01 AU
 TOP OF VALENCE BANDS -    BAND     60; K    1; EIG -4.1825216E-01 AU
 BOTTOM OF VIRTUAL BANDS - BAND     61; K    1; EIG -8.9030678E-02 AU
 INDIRECT ENERGY BAND GAP:   8.8345 eV
 TTTTTTTTTTTTTTTTTTTTTTTTTTTTTT PDIG        TELAPSE       20.19 TCPU       12.83
 CHARGE NORMALIZATION FACTOR   1.00000000
 TOTAL ATOMIC CHARGES:
   9.0746342   9.0746342   9.0746342   9.0746342   9.0746342   9.0746342
   9.0729023   9.0729023   9.0729023   9.0729023   9.0729023   9.0729023
   0.4664683   0.4664683   0.4664683   0.4664683   0.4664683   0.4664683
   0.4632721   0.4632721   0.4632721   0.4632721   0.4632721   0.4632721
   0.4620884   0.4620884   0.4620884   0.4620884   0.4620884   0.4620884
   0.4606347   0.4606347   0.4606347   0.4606347   0.4606347   0.4606347
 TTTTTTTTTTTTTTTTTTTTTTTTTTTTTT MOQGAD      TELAPSE       20.20 TCPU       12.84
 TTTTTTTTTTTTTTTTTTTTTTTTTTTTTT SHELLXN     TELAPSE       24.65 TCPU       17.29
 TTTTTTTTTTTTTTTTTTTTTTTTTTTTTT MONMO3      TELAPSE       24.93 TCPU       17.56
 NUMERICALLY INTEGRATED DENSITY    120.0000183776
 TTTTTTTTTTTTTTTTTTTTTTTTTTTTTT NUMDFT      TELAPSE       25.64 TCPU       18.27
 CYC   1 ETOT(AU) -9.152529435863E+02 DETOT  5.77E-01 tst  0.00E+00 PX  1.00E+00
 TTTTTTTTTTTTTTTTTTTTTTTTTTTTTT DIIS        TELAPSE       25.66 TCPU       18.30
 DIIS TEST: 0.12220E+01 AT SCF   CYCLE   1 - MIX   30 %
 TTTTTTTTTTTTTTTTTTTTTTTTTTTTTT FDIK        TELAPSE       25.68 TCPU       18.30
 INSULATING STATE
 TOP OF VALENCE BANDS -    BAND     60; K    4; EIG -3.1508106E-01 AU
 TOP OF VALENCE BANDS -    BAND     60; K    1; EIG -3.2263963E-01 AU
 BOTTOM OF VIRTUAL BANDS - BAND     61; K    1; EIG -2.5439241E-02 AU
 INDIRECT ENERGY BAND GAP:   7.8816 eV
 TTTTTTTTTTTTTTTTTTTTTTTTTTTTTT PDIG        TELAPSE       25.69 TCPU       18.30
 CHARGE NORMALIZATION FACTOR   1.00000000
 TOTAL ATOMIC CHARGES:
   8.8576358   8.8576358   8.8576358   8.8576358   8.8576358   8.8576358
   8.8640835   8.8640835   8.8640835   8.8640835   8.8640835   8.8640835
   0.5737819   0.5737819   0.5737819   0.5737819   0.5737819   0.5737819
   0.5714127   0.5714127   0.5714127   0.5714127   0.5714127   0.5714127
   0.5650354   0.5650354   0.5650354   0.5650354   0.5650354   0.5650354
   0.5680507   0.5680507   0.5680507   0.5680507   0.5680507   0.5680507
 TTTTTTTTTTTTTTTTTTTTTTTTTTTTTT MOQGAD      TELAPSE       25.69 TCPU       18.31
 TTTTTTTTTTTTTTTTTTTTTTTTTTTTTT SHELLXN     TELAPSE       30.15 TCPU       22.76
 TTTTTTTTTTTTTTTTTTTTTTTTTTTTTT MONMO3      TELAPSE       30.42 TCPU       23.03
 NUMERICALLY INTEGRATED DENSITY    120.0000124579
 TTTTTTTTTTTTTTTTTTTTTTTTTTTTTT NUMDFT      TELAPSE       31.11 TCPU       23.73
 CYC   2 ETOT(AU) -9.155036516612E+02 DETOT -2.51E-01 tst  2.71E-03 PX  1.24E-01
 TTTTTTTTTTTTTTTTTTTTTTTTTTTTTT DIIS        TELAPSE       31.15 TCPU       23.76
 DIIS TEST: 0.26703E+00 AT SCF   CYCLE   2 - DIIS ACTIVE - HISTORY:     2 CYCLES
 TTTTTTTTTTTTTTTTTTTTTTTTTTTTTT FDIK        TELAPSE       31.17 TCPU       23.77
 INSULATING STATE
 TOP OF VALENCE BANDS -    BAND     60; K    4; EIG -3.6149920E-01 AU
 TOP OF VALENCE BANDS -    BAND     60; K    1; EIG -3.6767968E-01 AU
 BOTTOM OF VIRTUAL BANDS - BAND     61; K    1; EIG -2.8361171E-02 AU
 INDIRECT ENERGY BAND GAP:   9.0652 eV
 TTTTTTTTTTTTTTTTTTTTTTTTTTTTTT PDIG        TELAPSE       31.18 TCPU       23.77
 CHARGE NORMALIZATION FACTOR   1.00000000
 TOTAL ATOMIC CHARGES:
   8.9322468   8.9322468   8.9322468   8.9322468   8.9322468   8.9322468
   8.9349661   8.9349661   8.9349661   8.9349661   8.9349661   8.9349661
   0.5365357   0.5365357   0.5365357   0.5365357   0.5365357   0.5365357
   0.5344231   0.5344231   0.5344231   0.5344231   0.5344231   0.5344231
   0.5303965   0.5303965   0.5303965   0.5303965   0.5303965   0.5303965
   0.5314318   0.5314318   0.5314318   0.5314318   0.5314318   0.5314318
 TTTTTTTTTTTTTTTTTTTTTTTTTTTTTT MOQGAD      TELAPSE       31.18 TCPU       23.78
 TTTTTTTTTTTTTTTTTTTTTTTTTTTTTT SHELLXN     TELAPSE       35.64 TCPU       28.24
 TTTTTTTTTTTTTTTTTTTTTTTTTTTTTT MONMO3      TELAPSE       35.92 TCPU       28.51
 NUMERICALLY INTEGRATED DENSITY    120.0000144002
 TTTTTTTTTTTTTTTTTTTTTTTTTTTTTT NUMDFT      TELAPSE       36.61 TCPU       29.21
 CYC   3 ETOT(AU) -9.155735654198E+02 DETOT -6.99E-02 tst  2.47E-04 PX  4.37E-02
 TTTTTTTTTTTTTTTTTTTTTTTTTTTTTT DIIS        TELAPSE       36.62 TCPU       29.21
 DIIS TEST: 0.71631E-03 AT SCF   CYCLE   3 - DIIS ACTIVE - HISTORY:     3 CYCLES
 TTTTTTTTTTTTTTTTTTTTTTTTTTTTTT FDIK        TELAPSE       41.51 TCPU       29.22
 INSULATING STATE
 TOP OF VALENCE BANDS -    BAND     60; K    4; EIG -3.5924290E-01 AU
 TOP OF VALENCE BANDS -    BAND     60; K    1; EIG -3.6583543E-01 AU
 BOTTOM OF VIRTUAL BANDS - BAND     61; K    1; EIG -2.5937900E-02 AU
 INDIRECT ENERGY BAND GAP:   9.0697 eV
 TTTTTTTTTTTTTTTTTTTTTTTTTTTTTT PDIG        TELAPSE       41.51 TCPU       29.22
 CHARGE NORMALIZATION FACTOR   1.00000000
 TOTAL ATOMIC CHARGES:
   8.9293250   8.9293250   8.9293250   8.9293250   8.9293250   8.9293250
   8.9334498   8.9334498   8.9334498   8.9334498   8.9334498   8.9334498
   0.5376467   0.5376467   0.5376467   0.5376467   0.5376467   0.5376467
   0.5358210   0.5358210   0.5358210   0.5358210   0.5358210   0.5358210
   0.5309741   0.5309741   0.5309741   0.5309741   0.5309741   0.5309741
   0.5327835   0.5327835   0.5327835   0.5327835   0.5327835   0.5327835
 TTTTTTTTTTTTTTTTTTTTTTTTTTTTTT MOQGAD      TELAPSE       41.52 TCPU       29.23
 TTTTTTTTTTTTTTTTTTTTTTTTTTTTTT SHELLXN     TELAPSE       46.00 TCPU       33.70
 TTTTTTTTTTTTTTTTTTTTTTTTTTTTTT MONMO3      TELAPSE       46.27 TCPU       33.98
 NUMERICALLY INTEGRATED DENSITY    120.0000143272
 TTTTTTTTTTTTTTTTTTTTTTTTTTTTTT NUMDFT      TELAPSE       46.99 TCPU       34.70
 CYC   4 ETOT(AU) -9.155737121245E+02 DETOT -1.47E-04 tst  7.83E-07 PX  1.63E-03
 TTTTTTTTTTTTTTTTTTTTTTTTTTTTTT DIIS        TELAPSE       47.00 TCPU       34.70
 DIIS TEST: 0.24171E-04 AT SCF   CYCLE   4 - DIIS ACTIVE - HISTORY:     4 CYCLES
 TTTTTTTTTTTTTTTTTTTTTTTTTTTTTT FDIK        TELAPSE       47.02 TCPU       34.71
 INSULATING STATE
 TOP OF VALENCE BANDS -    BAND     60; K    4; EIG -3.5940512E-01 AU
 TOP OF VALENCE BANDS -    BAND     60; K    1; EIG -3.6546351E-01 AU
 BOTTOM OF VIRTUAL BANDS - BAND     61; K    1; EIG -2.5613026E-02 AU
 INDIRECT ENERGY BAND GAP:   9.0829 eV
 TTTTTTTTTTTTTTTTTTTTTTTTTTTTTT PDIG        TELAPSE       47.02 TCPU       34.71
 CHARGE NORMALIZATION FACTOR   1.00000000
 TOTAL ATOMIC CHARGES:
   8.9301023   8.9301023   8.9301023   8.9301023   8.9301023   8.9301023
   8.9326679   8.9326679   8.9326679   8.9326679   8.9326679   8.9326679
   0.5374566   0.5374566   0.5374566   0.5374566   0.5374566   0.5374566
   0.5355777   0.5355777   0.5355777   0.5355777   0.5355777   0.5355777
   0.5313710   0.5313710   0.5313710   0.5313710   0.5313710   0.5313710
   0.5328245   0.5328245   0.5328245   0.5328245   0.5328245   0.5328245
 TTTTTTTTTTTTTTTTTTTTTTTTTTTTTT MOQGAD      TELAPSE       47.03 TCPU       34.72
 TTTTTTTTTTTTTTTTTTTTTTTTTTTTTT SHELLXN     TELAPSE       51.53 TCPU       39.22
 TTTTTTTTTTTTTTTTTTTTTTTTTTTTTT MONMO3      TELAPSE       51.80 TCPU       39.49
 NUMERICALLY INTEGRATED DENSITY    120.0000143340
 TTTTTTTTTTTTTTTTTTTTTTTTTTTTTT NUMDFT      TELAPSE       52.50 TCPU       40.19
 CYC   5 ETOT(AU) -9.155737162324E+02 DETOT -4.11E-06 tst  5.19E-08 PX  4.69E-04
 TTTTTTTTTTTTTTTTTTTTTTTTTTTTTT DIIS        TELAPSE       52.50 TCPU       40.19
 DIIS TEST: 0.77340E-05 AT SCF   CYCLE   5 - DIIS ACTIVE - HISTORY:     5 CYCLES
 TTTTTTTTTTTTTTTTTTTTTTTTTTTTTT FDIK        TELAPSE       52.51 TCPU       40.19
 INSULATING STATE
 TOP OF VALENCE BANDS -    BAND     60; K    4; EIG -3.5921353E-01 AU
 TOP OF VALENCE BANDS -    BAND     60; K    1; EIG -3.6557965E-01 AU
 BOTTOM OF VIRTUAL BANDS - BAND     61; K    1; EIG -2.5602183E-02 AU
 INDIRECT ENERGY BAND GAP:   9.0780 eV
 TTTTTTTTTTTTTTTTTTTTTTTTTTTTTT PDIG        TELAPSE       52.51 TCPU       40.20
 CHARGE NORMALIZATION FACTOR   1.00000000
 TOTAL ATOMIC CHARGES:
   8.9295982   8.9295982   8.9295982   8.9295982   8.9295982   8.9295982
   8.9331232   8.9331232   8.9331232   8.9331232   8.9331232   8.9331232
   0.5376403   0.5376403   0.5376403   0.5376403   0.5376403   0.5376403
   0.5357167   0.5357167   0.5357167   0.5357167   0.5357167   0.5357167
   0.5311818   0.5311818   0.5311818   0.5311818   0.5311818   0.5311818
   0.5327398   0.5327398   0.5327398   0.5327398   0.5327398   0.5327398
 TTTTTTTTTTTTTTTTTTTTTTTTTTTTTT MOQGAD      TELAPSE       52.52 TCPU       40.20
 TTTTTTTTTTTTTTTTTTTTTTTTTTTTTT SHELLXN     TELAPSE       56.97 TCPU       44.64
 TTTTTTTTTTTTTTTTTTTTTTTTTTTTTT MONMO3      TELAPSE       57.22 TCPU       44.90
 NUMERICALLY INTEGRATED DENSITY    120.0000143285
 TTTTTTTTTTTTTTTTTTTTTTTTTTTTTT NUMDFT      TELAPSE       57.92 TCPU       45.59
 CYC   6 ETOT(AU) -9.155737181401E+02 DETOT -1.91E-06 tst  9.36E-09 PX  2.53E-04
 TTTTTTTTTTTTTTTTTTTTTTTTTTTTTT DIIS        TELAPSE       57.92 TCPU       45.59
 DIIS TEST: 0.56342E-06 AT SCF   CYCLE   6 - DIIS ACTIVE - HISTORY:     6 CYCLES
 TTTTTTTTTTTTTTTTTTTTTTTTTTTTTT FDIK        TELAPSE       57.94 TCPU       45.60
 INSULATING STATE
 TOP OF VALENCE BANDS -    BAND     60; K    4; EIG -3.5923253E-01 AU
 TOP OF VALENCE BANDS -    BAND     60; K    1; EIG -3.6555419E-01 AU
 BOTTOM OF VIRTUAL BANDS - BAND     61; K    1; EIG -2.5596099E-02 AU
 INDIRECT ENERGY BAND GAP:   9.0787 eV
 TTTTTTTTTTTTTTTTTTTTTTTTTTTTTT PDIG        TELAPSE       57.95 TCPU       45.60
 CHARGE NORMALIZATION FACTOR   1.00000000
 TOTAL ATOMIC CHARGES:
   8.9296443   8.9296443   8.9296443   8.9296443   8.9296443   8.9296443
   8.9330212   8.9330212   8.9330212   8.9330212   8.9330212   8.9330212
   0.5376152   0.5376152   0.5376152   0.5376152   0.5376152   0.5376152
   0.5357184   0.5357184   0.5357184   0.5357184   0.5357184   0.5357184
   0.5312142   0.5312142   0.5312142   0.5312142   0.5312142   0.5312142
   0.5327868   0.5327868   0.5327868   0.5327868   0.5327868   0.5327868
 TTTTTTTTTTTTTTTTTTTTTTTTTTTTTT MOQGAD      TELAPSE       57.95 TCPU       45.61
 TTTTTTTTTTTTTTTTTTTTTTTTTTTTTT SHELLXN     TELAPSE       62.41 TCPU       50.06
 TTTTTTTTTTTTTTTTTTTTTTTTTTTTTT MONMO3      TELAPSE       62.68 TCPU       50.34
 NUMERICALLY INTEGRATED DENSITY    120.0000143283
 TTTTTTTTTTTTTTTTTTTTTTTTTTTTTT NUMDFT      TELAPSE       63.38 TCPU       51.04
 CYC   7 ETOT(AU) -9.155737181978E+02 DETOT -5.78E-08 tst  5.52E-10 PX  4.77E-05
 TTTTTTTTTTTTTTTTTTTTTTTTTTTTTT DIIS        TELAPSE       63.39 TCPU       51.04
 DIIS TEST: 0.85967E-08 AT SCF   CYCLE   7 - DIIS ACTIVE - HISTORY:     7 CYCLES
 TTTTTTTTTTTTTTTTTTTTTTTTTTTTTT FDIK        TELAPSE       63.41 TCPU       51.04
 INSULATING STATE
 TOP OF VALENCE BANDS -    BAND     60; K    4; EIG -3.5923064E-01 AU
 TOP OF VALENCE BANDS -    BAND     60; K    1; EIG -3.6555375E-01 AU
 BOTTOM OF VIRTUAL BANDS - BAND     61; K    1; EIG -2.5594168E-02 AU
 INDIRECT ENERGY BAND GAP:   9.0787 eV
 TTTTTTTTTTTTTTTTTTTTTTTTTTTTTT PDIG        TELAPSE       63.42 TCPU       51.05
 CHARGE NORMALIZATION FACTOR   1.00000000
 TOTAL ATOMIC CHARGES:
   8.9296360   8.9296360   8.9296360   8.9296360   8.9296360   8.9296360
   8.9330215   8.9330215   8.9330215   8.9330215   8.9330215   8.9330215
   0.5376232   0.5376232   0.5376232   0.5376232   0.5376232   0.5376232
   0.5357194   0.5357194   0.5357194   0.5357194   0.5357194   0.5357194
   0.5312201   0.5312201   0.5312201   0.5312201   0.5312201   0.5312201
   0.5327800   0.5327800   0.5327800   0.5327800   0.5327800   0.5327800
 TTTTTTTTTTTTTTTTTTTTTTTTTTTTTT MOQGAD      TELAPSE       63.42 TCPU       51.05
 TTTTTTTTTTTTTTTTTTTTTTTTTTTTTT SHELLXN     TELAPSE       67.87 TCPU       55.51
 +++ ENERGIES IN A.U. +++
 ::: EXT EL-POLE                                  -1.0197792156669E+03
 ::: EXT EL-SPHEROPOLE                             1.2194811581133E+01
 ::: BIELET ZONE E-E                               1.2561953249555E+03
 ::: TOTAL E-E                                     2.4861092086977E+02
 ::: TOTAL E-N + N-E                              -1.8231537971891E+03
 ::: TOTAL N-N                                    -1.8205109215076E+02
 ::: KINETIC ENERGY                                9.0967062589504E+02
 ::: PSEUDO TOTAL   ENERGY                        -8.4692334257510E+02
 ::: VIRIAL COEFFICIENT                            1.0357209944052E+00
 TTTTTTTTTTTTTTTTTTTTTTTTTTTTTT MONMO3      TELAPSE       68.15 TCPU       55.78
 NUMERICALLY INTEGRATED DENSITY    120.0000143284
 TTTTTTTTTTTTTTTTTTTTTTTTTTTTTT NUMDFT      TELAPSE       68.85 TCPU       56.49
 CYC   8 ETOT(AU) -9.155737182051E+02 DETOT -7.28E-09 tst  1.08E-11 PX  4.77E-05

 == SCF ENDED - CONVERGENCE ON ENERGY      E(AU) -9.1557371820512E+02 CYCLES   8


 ENERGY EXPRESSION=HARTREE+FOCK EXCH*0.00000+(HSE-3c     EXCH)*1.00000+PBEh-3c    CORR


 TOTAL ENERGY(DFT)(AU)(  8) -9.1557371820512E+02 DE-7.3E-09 tester 1.1E-11
 TTTTTTTTTTTTTTTTTTTTTTTTTTTTTT EDFT        TELAPSE       68.85 TCPU       56.49
 
 INFORMATION **** DFTD3 ENERGY **** CALCULATE DFTD3 ENERGY

           DFT-D V3(BJ)
 DF                                         hse3c     
 parameters
 s6       :    1.0000
 s8       :    0.0000
 a1       :    0.4411
 a2       :    4.5182
 k1 k3    :   16.0000   -4.0000
 Cutoff   :   50.2022
 CN-Cutoff:   21.1671
 
 Edisp /kcal,au:   -24.5814 -0.03917295

 E6    /kcal :   -26.4705
 E8    /kcal :     0.0000
 E6(ABC) "   :   1.889137
 
 INFORMATION **** DFTD3 ENERGY **** NORMAL TERMINATION OF DFTD3 MODULE

 GCP ENERGY CALCULATION
  level           hse3c               basis:hse3c
  Nbf            228
  Atoms           36

  Parameters: 
  sigma     1.0000
  eta       1.4086
  alpha     0.2908
  beta      1.9526

  dmp_scal      4.0000
  dmp_exp       6.0000
 cutoffs: 
   distance [bohr] 60.0
   noise    [a.u.] 2.2E-16
 SR-damping   T
 ** gCP correction **
  Egcp:        0.1591152693 / (a.u.) ||      99.8463 / (kcal/mol)
 INFORMATION **** GCP **** NORMAL TERMINATION OF GCP MODULE

 *******************************************************************************

 DFT-D3-GCP DISPERSION AND COUNTERPOISE CORRECTION

 D3 DISPERSION ENERGY (AU)      -3.9172947484963E-02
 GCP ENERGY (AU)                 1.5911526934162E-01
 TOTAL ENERGY + DISP + GCP (AU) -9.1545377588326E+02

 *******************************************************************************

 EIGENVECTORS IN FORTRAN UNIT  8
 TTTTTTTTTTTTTTTTTTTTTTTTTTTTTT END         TELAPSE       70.30 TCPU       57.92
 EEEEEEEEEE TERMINATION  DATE 25 03 2019 TIME 17:52:30.8
NODE    0 CPU TIME =        57.919
NODE    1 CPU TIME =        58.123
NODE    2 CPU TIME =        62.929
NODE    3 CPU TIME =        65.092
NODE    4 CPU TIME =        65.082
NODE    5 CPU TIME =        62.324
NODE    6 CPU TIME =        63.823
NODE    7 CPU TIME =        62.460
    TOTAL CPU TIME =       497.752
