 PROCESS            4  OF            8  WORKING
 PROCESS            0  OF            8  WORKING
 PROCESS            1  OF            8  WORKING

         
 *******************************************************************************
 *                                                                             *
 *                               CRYSTAL17                                     *
 *                      public : 1.0.1 - Feb 1st, 2017                         *
 *                       HTTP://WWW.CRYSTAL.UNITO.IT                           *
 *                                                                             *
 *                              MAIN AUTHORS                                   *
 *                                                                             *
 *  R. DOVESI(1,11), V.R. SAUNDERS(2), C. ROETTI(1,11), R. ORLANDO(1,11),      *
 PROCESS            7  OF            8  WORKING
 *  C.M. ZICOVICH-WILSON(1,3), F. PASCALE(4), B. CIVALLERI(1,11),              *
 *  K. DOLL(5), N.M. HARRISON(2,6), I.J. BUSH(7), Ph. D'ARCO(8),               *
 *  M. LLUNELL(9), M. CAUSA'(10), Y. NOEL(8), L. MASCHIO(1,11), A. ERBA(1,11)  *
 *  M. RE'RAT(14), S. CASASSA(1,11)                                            *
 *                                                                             *
 *        CONTRIBUTIONS TO THE CODE HAVE ALSO BEEN GIVEN BY                    *
 *                                                                             *
 *  M. FERRABONE(1,11), M. DE LA PIERRE(1,11), M. FERRERO(1,11),               *
 *  J. BAIMA(1,11), E. ALBANESE(1,11), M.F. PEINTINGER(12), R. BAST(13),       *
 *  B. KIRTMAN(15), V. LACIVITA(1,11), R. DEMICHELIS(1,16)                     *
 *  G. BRANDEBURG(17), S. SALUSTRO(1,11), G. SANSONE(1,11)                     *
 *  M.T. RUGGIERO(18)                                                          *
 *                                                                             *
 * (1) THEORETICAL CHEMISTRY GROUP - UNIVERSITA' DI TORINO - TORINO (ITALY)    *

 * (2) COMPUTATIONAL SCIENCE & ENGINEERING DEPARTMENT - STFC DARESBURY (UK)    *
 * (3) UNIVERSIDAD AUTONOMA DEL ESTADO DE MORELOS - CUERNAVACA (MEXICO)        *
 * (4) UNIVERSITE' DE LORRAINE - NANCY (FRANCE)                                *
 * (5) UNIVERSITAET STUTTGART- STUTTGART (GERMANY)                             *
 * (6) IMPERIAL COLLEGE - LONDON (UK)                                          *
 * (7) OXFORD E-RESEARCH CENTRE - OXFORD (UK)                                  *
 * (8) UPMC - SORBONNE UNIVERSITES - PARIS (FRANCE)                            *
 * (9) UNIVERSIDAD DE BARCELONA - BARCELONA (SPAIN)                            *
 *(10) UNIVERSITA' DI NAPOLI "FEDERICO II" - NAPOLI (ITALY)                    *
 *(11) NIS - NANOSTRUCTURED INTERFACES AND SURFACES - TORINO (ITALY)           *
 *(12) MPI FUER CHEMISCHE ENERGIEKONVERSION - MUELHEIM AN DER RUHR (GERMANY)   *
 *(13) UNIVERSITY OF TROMSO - TROMSO (NORWAY)                                  *
 *(14) UNIVERSITE' DE PAU ET DES PAYS DE L'ADOUR - PAU (FRANCE)                *
 *(15) UNIVERSITY OF CALIFORNIA SANTA BARBARA - SANTA BARBARA (USA)            *
 *(16) CURTIN UNIVERSITY - PERTH (AUSTRALIA)                                   *
 *(17) UNIVERSITY COLLEGE LONDON - LONDON (UK)                                 *
 *(18) CAMBRIDGE UNIVERSITY - CAMBRIDGE (UK)                                   *
 *                                                                             *
 *******************************************************************************
 EEEEEEEEEE STARTING  DATE 25 03 2019 TIME 17:52:40.4
 PROCESS            6  OF            8  WORKING
 !drive by JGB                                                                   
 PROCESS            5  OF            8  WORKING
 PROCESS            2  OF            8  WORKING
 PROCESS            3  OF            8  WORKING

 CRYSTAL CALCULATION
 (INPUT ACCORDING TO THE INTERNATIONAL TABLES FOR X-RAY CRYSTALLOGRAPHY)
 CRYSTAL FAMILY                       :  TRICLINIC   
 CRYSTAL CLASS  (GROTH - 1921)        :  TRICLINIC PEDIAL                     

 SPACE GROUP (NONCENTROSYMMETRIC)     :  P 1             

 LATTICE PARAMETERS  (ANGSTROMS AND DEGREES) - CONVENTIONAL CELL
        A           B           C        ALPHA        BETA       GAMMA
     9.41691     8.33489     8.15832    92.29654    91.64435    80.95157


 NUMBER OF IRREDUCIBLE ATOMS IN THE CONVENTIONAL CELL:   72

 INPUT COORDINATES

 ATOM AT. N.              COORDINATES
   1   8     8.395845493341E-01  1.516869012252E-01  4.549283489241E-01
   2   8     7.309742983381E-02  8.883953452521E-01  7.407484301548E-01
   3   8     9.011714746120E-01  7.560742210987E-01  5.216764560027E-01
   4   8     7.560007321830E-02  3.001083785584E-01  5.009213350839E-01
   5   8     4.278074744427E-01  3.557992510025E-02  9.511225040947E-01
   6   8     7.117387557957E-01  9.526301232468E-01  1.357021535391E-02
   7   8     4.217039769391E-01  7.196216144966E-01  5.547765690746E-01
   8   8     5.352834610505E-01  1.643375741693E-01  4.338057870273E-01
   9   8     2.906479191477E-01  5.535586055650E-01  7.670437615395E-01
  10   8     7.935319117275E-01  4.544251296199E-01  1.644480806379E-01
  11   8     6.320888816935E-02  2.407510980876E-01  7.760093198450E-02
  12   8     9.139187328916E-01  6.918249350610E-01  2.599464856772E-02
  13   8     2.231658868542E-01  9.846438066104E-01  4.711134503277E-01
  14   8     6.680686813095E-01  8.683084202176E-01  3.355276931929E-01
  15   8     8.401271860020E-01  1.179659374688E-01  7.794011063182E-01
  16   8     8.734465702249E-02  9.125728461615E-01  1.611338582881E-01
  17   8     4.189172339102E-02  4.542348591386E-01  8.024882143844E-01
  18   8     1.104094678918E-01  5.743847643377E-01  3.467762521186E-01
  19   8     3.433667210699E-01  2.752227752455E-01  1.960598162802E-01
  20   8     6.874284268698E-01  6.715577283554E-01  7.205169643688E-01
  21   8     4.639008992296E-01  2.667988443016E-01  7.468204355839E-01
  22   8     5.201490943410E-01  6.024471290241E-01  2.644099990588E-01
  23   8     3.406490521323E-01  7.510860174779E-01  2.880745305847E-02
  24   8     6.892730892253E-01  3.972261767023E-01  8.589014399620E-01
  25   1     8.805801769054E-01  5.174818872098E-02  3.993506574981E-01
  26   1     8.337924349692E-01  1.240636699161E-01  5.709844752852E-01
  27   1     1.128407219639E-02  9.891280513669E-01  7.723012503279E-01
  28   1     1.366548999950E-01  9.182984958720E-01  6.594817569693E-01
  29   1     9.575107064553E-01  8.046381692885E-01  6.093114063321E-01
  30   1     9.748306580673E-01  6.866965508545E-01  4.561555689632E-01
  31   1     9.833701901039E-01  2.645916197061E-01  4.719735734271E-01
  32   1     6.161478155246E-02  3.505148372968E-01  6.116918938387E-01
  33   1     3.983496063866E-01  1.129267180570E-01  4.150913442998E-02
  34   1     4.313353289700E-01  1.070123499426E-01  8.584942802218E-01
  35   1     6.097460255337E-01  9.676163855851E-01  9.793219055272E-01
  36   1     7.090972447214E-01  9.491715771924E-01  1.325901881340E-01
  37   1     3.624525906638E-01  6.595123367034E-01  6.198032058291E-01
  38   1     3.625331492469E-01  8.236608848798E-01  5.322912896003E-01
  39   1     6.264078565323E-01  2.024135720703E-01  4.196487627362E-01
  40   1     5.630470930794E-01  4.664565742939E-02  4.126228288267E-01
  41   1     3.122131663429E-01  6.186092206270E-01  8.652421400768E-01
  42   1     3.558077987795E-01  4.486501416662E-01  7.649111879355E-01
  43   1     8.296559143839E-01  5.513412268653E-01  1.295494227708E-01
  44   1     7.051870015041E-01  4.927483188180E-01  2.227936370129E-01
  45   1     9.787468176461E-01  2.933996256888E-01  1.348953433250E-01
  46   1     1.480544859102E-01  2.605034016945E-01  1.414877531845E-01
  47   1     9.502121225057E-01  6.277901366592E-01  9.285581501628E-01
  48   1     8.310388075625E-01  7.716587930007E-01  9.916331693918E-01
  49   1     1.745714268890E-01  9.474230797715E-01  3.734440565929E-01
  50   1     1.899449067053E-01  1.016774055692E-01  4.835165642498E-01
  51   1     6.211589788720E-01  7.740553402997E-01  3.078085453687E-01
  52   1     7.521968900447E-01  8.304391991818E-01  4.061488517878E-01
  53   1     8.002405374514E-01  2.321535149546E-01  8.089039321065E-01
  54   1     7.943583198925E-01  5.450321705958E-02  8.542238351715E-01
  55   1     2.299594871533E-02  8.424104516655E-01  1.111215825884E-01
  56   1     7.034784165615E-02  1.567485036069E-02  1.060529191595E-01
  57   1     5.750219262297E-02  3.714054685783E-01  8.846622281050E-01
  58   1     1.335098816673E-01  4.975446283467E-01  7.929361281920E-01
  59   1     6.760570009525E-02  5.704978962093E-01  2.387612433444E-01
  60   1     1.078562311565E-01  4.680294607167E-01  3.930561300198E-01
  61   1     3.678899352342E-01  3.818044885392E-01  1.828268493678E-01
  62   1     4.020520552647E-01  2.346199764342E-01  2.918120330765E-01
  63   1     7.648571382846E-01  6.825722607323E-01  6.472724768380E-01
  64   1     5.965532154668E-01  7.041409477630E-01  6.616763616627E-01
  65   1     5.508312585946E-01  3.063061283043E-01  7.930437789383E-01
  66   1     4.851217301960E-01  2.296994878667E-01  6.331881405429E-01
  67   1     4.560312554653E-01  6.556372697737E-01  1.787457114963E-01
  68   1     4.725749705877E-01  6.310946693213E-01  3.701677932745E-01
  69   1     3.753388614561E-01  8.438503247644E-01  9.819398599011E-01
  70   1     2.488898198616E-01  8.003717867020E-01  7.667871353424E-02
  71   1     7.174375891268E-01  4.146048219975E-01  9.743848798814E-01
  72   1     6.933875188443E-01  5.007102386650E-01  8.024706516052E-01

 *******************************************************************************

 << INFORMATION >>: FROM NOW ON, ALL COORDINATES REFER TO THE PRIMITIVE CELL

 *******************************************************************************

 LATTICE PARAMETERS  (ANGSTROMS AND DEGREES) - PRIMITIVE CELL
       A          B          C        ALPHA      BETA     GAMMA        VOLUME
    9.41691    8.33489    8.15832    92.29654  91.64435  80.95157    631.698320

 COORDINATES OF THE EQUIVALENT ATOMS (FRACTIONAL UNITS)

 N. ATOM EQUIV AT. N.          X                  Y                  Z

   1   1   1    8 O    -1.60415450666E-01  1.51686901225E-01  4.54928348924E-01

   2   2   1    8 O     7.30974298338E-02 -1.11604654748E-01 -2.59251569845E-01

   3   3   1    8 O    -9.88285253880E-02 -2.43925778901E-01 -4.78323543997E-01

   4   4   1    8 O     7.56000732183E-02  3.00108378558E-01 -4.99078664916E-01

   5   5   1    8 O     4.27807474443E-01  3.55799251003E-02 -4.88774959053E-02

   6   6   1    8 O    -2.88261244204E-01 -4.73698767532E-02  1.35702153539E-02

   7   7   1    8 O     4.21703976939E-01 -2.80378385503E-01 -4.45223430925E-01

   8   8   1    8 O    -4.64716538950E-01  1.64337574169E-01  4.33805787027E-01

   9   9   1    8 O     2.90647919148E-01 -4.46441394435E-01 -2.32956238460E-01

  10  10   1    8 O    -2.06468088272E-01  4.54425129620E-01  1.64448080638E-01

  11  11   1    8 O     6.32088881693E-02  2.40751098088E-01  7.76009319845E-02

  12  12   1    8 O    -8.60812671084E-02 -3.08175064939E-01  2.59946485677E-02

  13  13   1    8 O     2.23165886854E-01 -1.53561933896E-02  4.71113450328E-01

  14  14   1    8 O    -3.31931318690E-01 -1.31691579782E-01  3.35527693193E-01

  15  15   1    8 O    -1.59872813998E-01  1.17965937469E-01 -2.20598893682E-01

  16  16   1    8 O     8.73446570225E-02 -8.74271538385E-02  1.61133858288E-01

  17  17   1    8 O     4.18917233910E-02  4.54234859139E-01 -1.97511785616E-01

  18  18   1    8 O     1.10409467892E-01 -4.25615235662E-01  3.46776252119E-01

  19  19   1    8 O     3.43366721070E-01  2.75222775245E-01  1.96059816280E-01

  20  20   1    8 O    -3.12571573130E-01 -3.28442271645E-01 -2.79483035631E-01

  21  21   1    8 O     4.63900899230E-01  2.66798844302E-01 -2.53179564416E-01

  22  22   1    8 O    -4.79850905659E-01 -3.97552870976E-01  2.64409999059E-01

  23  23   1    8 O     3.40649052132E-01 -2.48913982522E-01  2.88074530585E-02

  24  24   1    8 O    -3.10726910775E-01  3.97226176702E-01 -1.41098560038E-01

  25  25   1    1 H    -1.19419823095E-01  5.17481887210E-02  3.99350657498E-01

  26  26   1    1 H    -1.66207565031E-01  1.24063669916E-01 -4.29015524715E-01

  27  27   1    1 H     1.12840721964E-02 -1.08719486331E-02 -2.27698749672E-01

  28  28   1    1 H     1.36654899995E-01 -8.17015041280E-02 -3.40518243031E-01

  29  29   1    1 H    -4.24892935447E-02 -1.95361830712E-01 -3.90688593668E-01

  30  30   1    1 H    -2.51693419327E-02 -3.13303449146E-01  4.56155568963E-01

  31  31   1    1 H    -1.66298098961E-02  2.64591619706E-01  4.71973573427E-01

  32  32   1    1 H     6.16147815525E-02  3.50514837297E-01 -3.88308106161E-01

  33  33   1    1 H     3.98349606387E-01  1.12926718057E-01  4.15091344300E-02

  34  34   1    1 H     4.31335328970E-01  1.07012349943E-01 -1.41505719778E-01

  35  35   1    1 H    -3.90253974466E-01 -3.23836144149E-02 -2.06780944728E-02

  36  36   1    1 H    -2.90902755279E-01 -5.08284228076E-02  1.32590188134E-01

  37  37   1    1 H     3.62452590664E-01 -3.40487663297E-01 -3.80196794171E-01

  38  38   1    1 H     3.62533149247E-01 -1.76339115120E-01 -4.67708710400E-01

  39  39   1    1 H    -3.73592143468E-01  2.02413572070E-01  4.19648762736E-01

  40  40   1    1 H    -4.36952906921E-01  4.66456574294E-02  4.12622828827E-01

  41  41   1    1 H     3.12213166343E-01 -3.81390779373E-01 -1.34757859923E-01

  42  42   1    1 H     3.55807798779E-01  4.48650141666E-01 -2.35088812065E-01

  43  43   1    1 H    -1.70344085616E-01 -4.48658773135E-01  1.29549422771E-01

  44  44   1    1 H    -2.94812998496E-01  4.92748318818E-01  2.22793637013E-01

  45  45   1    1 H    -2.12531823539E-02  2.93399625689E-01  1.34895343325E-01

  46  46   1    1 H     1.48054485910E-01  2.60503401694E-01  1.41487753184E-01

  47  47   1    1 H    -4.97878774943E-02 -3.72209863341E-01 -7.14418498372E-02

  48  48   1    1 H    -1.68961192437E-01 -2.28341206999E-01 -8.36683060823E-03

  49  49   1    1 H     1.74571426889E-01 -5.25769202285E-02  3.73444056593E-01

  50  50   1    1 H     1.89944906705E-01  1.01677405569E-01  4.83516564250E-01

  51  51   1    1 H    -3.78841021128E-01 -2.25944659700E-01  3.07808545369E-01

  52  52   1    1 H    -2.47803109955E-01 -1.69560800818E-01  4.06148851788E-01

  53  53   1    1 H    -1.99759462549E-01  2.32153514955E-01 -1.91096067893E-01

  54  54   1    1 H    -2.05641680107E-01  5.45032170596E-02 -1.45776164828E-01

  55  55   1    1 H     2.29959487153E-02 -1.57589548335E-01  1.11121582588E-01

  56  56   1    1 H     7.03478416562E-02  1.56748503607E-02  1.06052919160E-01

  57  57   1    1 H     5.75021926230E-02  3.71405468578E-01 -1.15337771895E-01

  58  58   1    1 H     1.33509881667E-01  4.97544628347E-01 -2.07063871808E-01

  59  59   1    1 H     6.76057000952E-02 -4.29502103791E-01  2.38761243344E-01

  60  60   1    1 H     1.07856231157E-01  4.68029460717E-01  3.93056130020E-01

  61  61   1    1 H     3.67889935234E-01  3.81804488539E-01  1.82826849368E-01

  62  62   1    1 H     4.02052055265E-01  2.34619976434E-01  2.91812033076E-01

  63  63   1    1 H    -2.35142861715E-01 -3.17427739268E-01 -3.52727523162E-01

  64  64   1    1 H    -4.03446784533E-01 -2.95859052237E-01 -3.38323638337E-01

  65  65   1    1 H    -4.49168741405E-01  3.06306128304E-01 -2.06956221062E-01

  66  66   1    1 H     4.85121730196E-01  2.29699487867E-01 -3.66811859457E-01

  67  67   1    1 H     4.56031255465E-01 -3.44362730226E-01  1.78745711496E-01

  68  68   1    1 H     4.72574970588E-01 -3.68905330679E-01  3.70167793275E-01

  69  69   1    1 H     3.75338861456E-01 -1.56149675236E-01 -1.80601400989E-02

  70  70   1    1 H     2.48889819862E-01 -1.99628213298E-01  7.66787135342E-02

  71  71   1    1 H    -2.82562410873E-01  4.14604821997E-01 -2.56151201186E-02

  72  72   1    1 H    -3.06612481156E-01 -4.99289761335E-01 -1.97529348395E-01

 NUMBER OF SYMMETRY OPERATORS         :    1
 *******************************************************************************
 * GEOMETRY EDITING - INPUT COORDINATES ARE GIVEN IN ANGSTROM         
 *******************************************************************************

 GCALCO - MAX INDICES DIRECT LATTICE VECTOR    14    15    15
 NO.OF VECTORS CREATED 6999 STARS 3500 RMAX   192.49472 BOHR

 GEOMETRY FOR WAVE FUNCTION - DIMENSIONALITY OF THE SYSTEM    3
 (NON PERIODIC DIRECTION: LATTICE PARAMETER FORMALLY SET TO 500)
 *******************************************************************************
 LATTICE PARAMETERS (ANGSTROMS AND DEGREES) - BOHR = 0.5291772083 ANGSTROM
 PRIMITIVE CELL - CENTRING CODE 1/0 VOLUME=   631.698320 - DENSITY  1.136 g/cm^3
         A              B              C           ALPHA      BETA       GAMMA 
     9.41691423     8.33488527     8.15831879    92.296541  91.644347  80.951572
 *******************************************************************************
 ATOMS IN THE ASYMMETRIC UNIT   72 - ATOMS IN THE UNIT CELL:   72
     ATOM                 X/A                 Y/B                 Z/C    
 *******************************************************************************
      1 T   8 O    -1.604154506659E-01  1.516869012252E-01  4.549283489241E-01
      2 T   8 O     7.309742983381E-02 -1.116046547479E-01 -2.592515698452E-01
      3 T   8 O    -9.882852538798E-02 -2.439257789013E-01 -4.783235439973E-01
      4 T   8 O     7.560007321830E-02  3.001083785584E-01 -4.990786649161E-01
      5 T   8 O     4.278074744427E-01  3.557992510025E-02 -4.887749590534E-02
      6 T   8 O    -2.882612442043E-01 -4.736987675324E-02  1.357021535391E-02
      7 T   8 O     4.217039769391E-01 -2.803783855034E-01 -4.452234309254E-01
      8 T   8 O    -4.647165389495E-01  1.643375741693E-01  4.338057870273E-01
      9 T   8 O     2.906479191477E-01 -4.464413944350E-01 -2.329562384605E-01
     10 T   8 O    -2.064680882725E-01  4.544251296199E-01  1.644480806379E-01
     11 T   8 O     6.320888816935E-02  2.407510980876E-01  7.760093198450E-02
     12 T   8 O    -8.608126710839E-02 -3.081750649390E-01  2.599464856772E-02
     13 T   8 O     2.231658868542E-01 -1.535619338957E-02  4.711134503277E-01
     14 T   8 O    -3.319313186905E-01 -1.316915797824E-01  3.355276931929E-01
     15 T   8 O    -1.598728139980E-01  1.179659374688E-01 -2.205988936818E-01
     16 T   8 O     8.734465702249E-02 -8.742715383854E-02  1.611338582881E-01
     17 T   8 O     4.189172339102E-02  4.542348591386E-01 -1.975117856156E-01
     18 T   8 O     1.104094678918E-01 -4.256152356623E-01  3.467762521186E-01
     19 T   8 O     3.433667210699E-01  2.752227752455E-01  1.960598162802E-01
     20 T   8 O    -3.125715731302E-01 -3.284422716446E-01 -2.794830356312E-01
     21 T   8 O     4.639008992296E-01  2.667988443016E-01 -2.531795644161E-01
     22 T   8 O    -4.798509056590E-01 -3.975528709759E-01  2.644099990588E-01
     23 T   8 O     3.406490521323E-01 -2.489139825221E-01  2.880745305847E-02
     24 T   8 O    -3.107269107747E-01  3.972261767023E-01 -1.410985600380E-01
     25 T   1 H    -1.194198230946E-01  5.174818872098E-02  3.993506574981E-01
     26 T   1 H    -1.662075650308E-01  1.240636699161E-01 -4.290155247148E-01
     27 T   1 H     1.128407219639E-02 -1.087194863309E-02 -2.276987496721E-01
     28 T   1 H     1.366548999950E-01 -8.170150412800E-02 -3.405182430307E-01
     29 T   1 H    -4.248929354466E-02 -1.953618307115E-01 -3.906885936679E-01
     30 T   1 H    -2.516934193274E-02 -3.133034491455E-01  4.561555689632E-01
     31 T   1 H    -1.662980989612E-02  2.645916197061E-01  4.719735734271E-01
     32 T   1 H     6.161478155246E-02  3.505148372968E-01 -3.883081061613E-01
     33 T   1 H     3.983496063866E-01  1.129267180570E-01  4.150913442998E-02
     34 T   1 H     4.313353289700E-01  1.070123499426E-01 -1.415057197782E-01
     35 T   1 H    -3.902539744663E-01 -3.238361441494E-02 -2.067809447282E-02
     36 T   1 H    -2.909027552786E-01 -5.082842280757E-02  1.325901881340E-01
     37 T   1 H     3.624525906638E-01 -3.404876632966E-01 -3.801967941709E-01
     38 T   1 H     3.625331492469E-01 -1.763391151202E-01 -4.677087103997E-01
     39 T   1 H    -3.735921434677E-01  2.024135720703E-01  4.196487627362E-01
     40 T   1 H    -4.369529069206E-01  4.664565742939E-02  4.126228288267E-01
     41 T   1 H     3.122131663429E-01 -3.813907793730E-01 -1.347578599232E-01
     42 T   1 H     3.558077987795E-01  4.486501416662E-01 -2.350888120645E-01
     43 T   1 H    -1.703440856161E-01 -4.486587731347E-01  1.295494227708E-01
     44 T   1 H    -2.948129984959E-01  4.927483188180E-01  2.227936370129E-01
     45 T   1 H    -2.125318235393E-02  2.933996256888E-01  1.348953433250E-01
     46 T   1 H     1.480544859102E-01  2.605034016945E-01  1.414877531845E-01
     47 T   1 H    -4.978787749427E-02 -3.722098633408E-01 -7.144184983722E-02
     48 T   1 H    -1.689611924375E-01 -2.283412069993E-01 -8.366830608227E-03
     49 T   1 H     1.745714268890E-01 -5.257692022848E-02  3.734440565929E-01
     50 T   1 H     1.899449067053E-01  1.016774055692E-01  4.835165642498E-01
     51 T   1 H    -3.788410211280E-01 -2.259446597003E-01  3.078085453687E-01
     52 T   1 H    -2.478031099553E-01 -1.695608008182E-01  4.061488517878E-01
     53 T   1 H    -1.997594625486E-01  2.321535149546E-01 -1.910960678935E-01
     54 T   1 H    -2.056416801075E-01  5.450321705958E-02 -1.457761648285E-01
     55 T   1 H     2.299594871533E-02 -1.575895483345E-01  1.111215825884E-01
     56 T   1 H     7.034784165615E-02  1.567485036069E-02  1.060529191595E-01
     57 T   1 H     5.750219262297E-02  3.714054685783E-01 -1.153377718950E-01
     58 T   1 H     1.335098816673E-01  4.975446283467E-01 -2.070638718080E-01
     59 T   1 H     6.760570009525E-02 -4.295021037907E-01  2.387612433444E-01
     60 T   1 H     1.078562311565E-01  4.680294607167E-01  3.930561300198E-01
     61 T   1 H     3.678899352342E-01  3.818044885392E-01  1.828268493678E-01
     62 T   1 H     4.020520552647E-01  2.346199764342E-01  2.918120330765E-01
     63 T   1 H    -2.351428617154E-01 -3.174277392677E-01 -3.527275231620E-01
     64 T   1 H    -4.034467845332E-01 -2.958590522370E-01 -3.383236383373E-01
     65 T   1 H    -4.491687414054E-01  3.063061283043E-01 -2.069562210617E-01
     66 T   1 H     4.851217301960E-01  2.296994878667E-01 -3.668118594571E-01
     67 T   1 H     4.560312554653E-01 -3.443627302263E-01  1.787457114963E-01
     68 T   1 H     4.725749705877E-01 -3.689053306787E-01  3.701677932745E-01
     69 T   1 H     3.753388614561E-01 -1.561496752356E-01 -1.806014009890E-02
     70 T   1 H     2.488898198616E-01 -1.996282132980E-01  7.667871353424E-02
     71 T   1 H    -2.825624108732E-01  4.146048219975E-01 -2.561512011855E-02
     72 T   1 H    -3.066124811557E-01 -4.992897613350E-01 -1.975293483948E-01

 T = ATOM BELONGING TO THE ASYMMETRIC UNIT

 ****    1 SYMMOPS - TRANSLATORS IN FRACTIONAL UNITS
 **** MATRICES AND TRANSLATORS IN THE CRYSTALLOGRAPHIC REFERENCE FRAME
   V INV                    ROTATION MATRICES                   TRANSLATORS
   1   1  1.00  0.00  0.00  0.00  1.00  0.00  0.00  0.00  1.00  0.00  0.00  0.00

 DIRECT LATTICE VECTORS CARTESIAN COMPONENTS (ANGSTROM)
          X                    Y                    Z
   0.929972793640E+01   0.148099085889E+01   0.000000000000E+00
   0.000000000000E+00   0.833488527000E+01   0.000000000000E+00
  -0.184993954672E+00  -0.326915827915E+00   0.814966678812E+01


 CARTESIAN COORDINATES - PRIMITIVE CELL
 *******************************************************************************
 *      ATOM          X(ANGSTROM)         Y(ANGSTROM)         Z(ANGSTROM)
 *******************************************************************************
    1     8 O    -1.575979042348E+00  8.779958247822E-01  3.707514456203E+00
    2     8 O     7.277461834652E-01 -7.372019259352E-01 -2.112813908537E+00
    3     8 O    -8.305914344468E-01 -2.023085986838E+00 -3.898177500493E+00
    4     8 O     6.103926941451E-01  2.449572808239E+00  4.082341967996E+00
    5     8 O     3.987535162737E+00  9.461123796815E-01 -3.983353050664E-01
    6     8 O    -2.683261553512E+00 -8.261710738192E-01  1.105927333775E-01
    7     8 O     4.004095898431E+00 -1.566831353825E+00 -3.628422608308E+00
    8     8 O    -4.401988827878E+00  5.396759020708E-01  3.535372615033E+00
    9     8 O     2.746042069173E+00 -3.214433809417E+00 -1.898515719668E+00
   10     8 O    -1.950518949258E+00  3.428043287372E+00  1.340197061146E+00
   11     8 O     5.734697598432E-01  2.074875593840E+00  6.324217381216E-01
   12     8 O    -8.053412173674E-01 -2.704587441109E+00  2.118477241013E-01
   13     8 O     1.988228892154E+00  4.850008470602E-02  3.839417639574E+00
   14     8 O    -3.148941552258E+00 -1.698910770880E+00  2.734438897710E+00
   15     8 O    -1.445964212869E+00  8.185796484191E-01 -1.797807477336E+00
   16     8 O     7.824727573310E-01 -6.520158667908E-01  1.313187253333E+00
   17     8 O     4.261201166388E-01  3.912606424878E+00 -1.609655239495E+00
   18     8 O     9.626265027305E-01 -3.497305391289E+00  2.826110904801E+00
   19     8 O     3.156947207598E+00  2.738378173355E+00  1.597822173225E+00
   20     8 O    -2.855127918738E+00 -3.109076866550E+00 -2.277693613328E+00
   21     8 O    -4.938739095250E+00  1.512548296633E+00 -2.063329087554E+00
   22     8 O     4.788330812355E+00 -2.629661328114E+00  2.154853387778E+00
   23     8 O     3.162614301958E+00 -1.579588966489E+00  2.347711434411E-01
   24     8 O    -2.863573352103E+00  2.896778247158E+00 -1.149906248594E+00
   25     1 H    -1.184449322424E+00  1.239014987218E-01  3.254574790228E+00
   26     1 H    -1.466319857225E+00  9.281565358869E-01 -3.496333573358E+00
   27     1 H     1.470616936169E-01  5.334885199820E-04 -1.855668937900E+00
   28     1 H     1.333847207546E+00 -3.672672022375E-01 -2.775110215978E+00
   29     1 H    -3.228638421871E-01 -1.563522415402E+00 -3.183981856314E+00
   30     1 H    -3.184540549611E-01 -2.797748344135E+00  3.717515890597E+00
   31     1 H    -2.419649655171E-01  2.026416565702E+00  3.846427356231E+00
   32     1 H     6.448353574887E-01  3.139695948565E+00 -3.164581676342E+00
   33     1 H     3.696864024034E+00  1.517613371576E+00  3.382856142678E-01
   34     1 H     4.037478911489E+00  1.576999798102E+00 -1.153224464806E+00
   35     1 H    -3.625430466164E+00 -8.411162832331E-01 -1.685195797668E-01
   36     1 H    -2.729844863294E+00 -8.978192250775E-01  1.080565852667E+00
   37     1 H     3.441044591524E+00 -2.176844286136E+00 -3.098477186406E+00
   38     1 H     3.457982939894E+00 -7.799566327769E-01 -3.811670143661E+00
   39     1 H    -3.551937777618E+00  9.966175281640E-01  3.419997584349E+00
   40     1 H    -4.139875884273E+00 -3.932299916005E-01  3.362738564111E+00
   41     1 H     2.928426894581E+00 -2.672409066385E+00 -1.098231655455E+00
   42     1 H     3.352405735342E+00 -3.991635461698E+00 -1.915895483942E+00
   43     1 H    -1.608119511848E+00 -4.034149189921E+00  1.055784628176E+00
   44     1 H    -2.782896154113E+00  3.597550582180E+00  1.815693904170E+00
   45     1 H    -2.226036367028E-01  2.369877026744E+00  1.099352099368E+00
   46     1 H     1.350692059729E+00  2.344278719847E+00  1.153078043054E+00
   47     1 H    -4.497974048970E-01 -3.152706427273E+00 -5.822272709006E-01
   48     1 H    -1.569745308396E+00 -2.150692494905E+00 -6.818688152973E-02
   49     1 H     1.554381882659E+00 -3.017686834488E-01  3.043444625238E+00
   50     1 H     1.676988313894E+00  9.707069625820E-01  3.940498885175E+00
   51     1 H    -3.580061147728E+00 -2.544910390684E+00  2.508537079292E+00
   52     1 H    -2.379636586656E+00 -1.913040449897E+00  3.309977808450E+00
   53     1 H    -1.822357037101E+00  1.701603303409E+00 -1.557369277853E+00
   54     1 H    -1.885443968155E+00  1.973811482062E-01 -1.188027169003E+00
   55     1 H     1.932992456795E-01 -1.315761419451E+00  9.056038710645E-01
   56     1 H     6.345966393953E-01  2.001622119465E-01  8.642959530578E-01
   57     1 H     5.560915376860E-01  3.218487934080E+00 -9.399644090290E-01
   58     1 H     1.279911140842E+00 -3.922488504621E+00 -1.687501559094E+00
   59     1 H     5.845452312069E-01 -3.557782164011E+00  1.945824575175E+00
   60     1 H     9.303205981003E-01  3.932209680309E+00  3.203276488691E+00
   61     1 H     3.387454446333E+00  3.667369247879E+00  1.489977902270E+00
   62     1 H     3.684991268212E+00  2.455568031886E+00  2.378170834339E+00
   63     1 H    -2.121512180708E+00 -2.878656006783E+00 -2.874611780771E+00
   64     1 H    -3.689357505159E+00 -2.952848904099E+00 -2.757224918995E+00
   65     1 H    -4.138861442827E+00  1.955468901143E+00 -1.686624241382E+00
   66     1 H    -4.720369853040E+00  1.271905469648E+00 -2.989394428508E+00
   67     1 H     4.207899730272E+00 -2.253280529247E+00  1.456717988501E+00
   68     1 H     4.326339852048E+00 -2.495918105722E+00  3.016744170883E+00
   69     1 H     3.493890312239E+00 -7.397120595803E-01 -1.471841239529E-01
   70     1 H     2.300422512397E+00 -1.320342191526E+00  6.249059650461E-01
   71     1 H    -2.623014903804E+00  3.045585264369E+00 -2.087546937040E-01
   72     1 H    -2.814870921329E+00  3.783847581441E+00 -1.609798370293E+00

 *******************************************************************************
 STARTING BASIS SET HANDLING 
 *******************************************************************************

 Loading internal basis set: DEF2-MSVP           

 Please cite in your publication:
 Fully Optimized Contracted Gaussian Basis Sets for Atoms Li to Kr. A. Schäfer, 
 H. Horn and R. Ahlrichs; J. Chem. Phys. 97, 2571 (1992).                       
                                                                                
                    
 S. Grimme, J. G. Brandenburg, C. Bannwarth, and A. Hansen, J. Chem. Phys., 143,
  054107 (2015).                                                                
                                                                                
                    

 *******************************************************************************
 LOCAL ATOMIC FUNCTIONS BASIS SET
 *******************************************************************************
   ATOM   X(AU)   Y(AU)   Z(AU)  N. TYPE  EXPONENT  S COEF   P COEF   D/F/G COEF
 *******************************************************************************
   1 O   -2.978   1.659   7.006
                                  1 S  
                                         6.773E+03 1.727E-03 0.000E+00 0.000E+00
                                         1.017E+03 1.325E-02 0.000E+00 0.000E+00
                                         2.313E+02 6.603E-02 0.000E+00 0.000E+00
                                         6.501E+01 2.353E-01 0.000E+00 0.000E+00
                                         2.050E+01 5.498E-01 0.000E+00 0.000E+00
                                  2 S  
                                         6.716E+00 1.000E+00 0.000E+00 0.000E+00
                                  3 S  
                                         1.147E+00 1.000E+00 0.000E+00 0.000E+00
                                  4 S  
                                         3.342E-01 1.000E+00 0.000E+00 0.000E+00
                           5-     7 P  
                                         1.769E+01 0.000E+00 4.359E-02 0.000E+00
                                         3.854E+00 0.000E+00 2.318E-01 0.000E+00
                                         1.047E+00 0.000E+00 5.146E-01 0.000E+00
                           8-    10 P  
                                         2.759E-01 0.000E+00 1.000E+00 0.000E+00
                          11-    15 D  
                                         8.000E-01 0.000E+00 0.000E+00 1.000E+00
   2 O    1.375  -1.393  -3.993
   3 O   -1.570  -3.823  -7.366
   4 O    1.153   4.629   7.715
   5 O    7.535   1.788  -0.753
   6 O   -5.071  -1.561   0.209
   7 O    7.567  -2.961  -6.857
   8 O   -8.319   1.020   6.681
   9 O    5.189  -6.074  -3.588
  10 O   -3.686   6.478   2.533
  11 O    1.084   3.921   1.195
  12 O   -1.522  -5.111   0.400
  13 O    3.757   0.092   7.255
  14 O   -5.951  -3.210   5.167
  15 O   -2.732   1.547  -3.397
  16 O    1.479  -1.232   2.482
  17 O    0.805   7.394  -3.042
  18 O    1.819  -6.609   5.341
  19 O    5.966   5.175   3.019
  20 O   -5.395  -5.875  -4.304
  21 O   -9.333   2.858  -3.899
  22 O    9.049  -4.969   4.072
  23 O    5.976  -2.985   0.444
  24 O   -5.411   5.474  -2.173
  25 H   -2.238   0.234   6.150
                                361 S  
                                         1.874E+01 1.968E-02 0.000E+00 0.000E+00
                                         2.826E+00 1.380E-01 0.000E+00 0.000E+00
                                         6.401E-01 4.783E-01 0.000E+00 0.000E+00
                                362 S  
                                         1.756E-01 1.000E+00 0.000E+00 0.000E+00
  26 H   -2.771   1.754  -6.607
  27 H    0.278   0.001  -3.507
  28 H    2.521  -0.694  -5.244
  29 H   -0.610  -2.955  -6.017
  30 H   -0.602  -5.287   7.025
  31 H   -0.457   3.829   7.269
  32 H    1.219   5.933  -5.980
  33 H    6.986   2.868   0.639
  34 H    7.630   2.980  -2.179
  35 H   -6.851  -1.589  -0.318
  36 H   -5.159  -1.697   2.042
  37 H    6.503  -4.114  -5.855
  38 H    6.535  -1.474  -7.203
  39 H   -6.712   1.883   6.463
  40 H   -7.823  -0.743   6.355
  41 H    5.534  -5.050  -2.075
  42 H    6.335  -7.543  -3.621
  43 H   -3.039  -7.623   1.995
  44 H   -5.259   6.798   3.431
  45 H   -0.421   4.478   2.077
  46 H    2.552   4.430   2.179
  47 H   -0.850  -5.958  -1.100
  48 H   -2.966  -4.064  -0.129
  49 H    2.937  -0.570   5.751
  50 H    3.169   1.834   7.446
  51 H   -6.765  -4.809   4.740
  52 H   -4.497  -3.615   6.255
  53 H   -3.444   3.216  -2.943
  54 H   -3.563   0.373  -2.245
  55 H    0.365  -2.486   1.711
  56 H    1.199   0.378   1.633
  57 H    1.051   6.082  -1.776
  58 H    2.419  -7.412  -3.189
  59 H    1.105  -6.723   3.677
  60 H    1.758   7.431   6.053
  61 H    6.401   6.930   2.816
  62 H    6.964   4.640   4.494
  63 H   -4.009  -5.440  -5.432
  64 H   -6.972  -5.580  -5.210
  65 H   -7.821   3.695  -3.187
  66 H   -8.920   2.404  -5.649
  67 H    7.952  -4.258   2.753
  68 H    8.176  -4.717   5.701
  69 H    6.602  -1.398  -0.278
  70 H    4.347  -2.495   1.181
  71 H   -4.957   5.755  -0.394
  72 H   -5.319   7.150  -3.042

 *******************************************************************************
 FINISHED BASIS SET HANDLING 
 *******************************************************************************

 INFORMATION **** SET_MPP **** PCRYSTAL CALCULATION
 INFORMATION **** READM2 **** NEW DEFAULT: FOCK/KS MATRIX MIXING SET TO 30 %
 INFORMATION **** READM2 **** NEW DEFAULT: FULL DIRECT SCF MODE
 INFORMATION **** READM2 **** NEW DEFAULT: COULOMB BIPOLAR BUFFER SET TO 32 Mb
 INFORMATION **** READM2 **** NEW DEFAULT: EXCHANGE BIPOLAR BUFFER SET TO 32 Mb

 *******************************************************************************
 NEW DEFAULT: DFT INTEGRATION GRID INCREASED TO XLGRID
 NEW DEFAULT: DIIS ACCELERATOR ACTIVE
 USE KEYWORD NODIIS TO TURN IT OFF
 *******************************************************************************

 INFORMATION **** RDDFTP **** HSE-3c calculation
 INFORMATION **** RDDFTP **** HSE screened hybrid functional combined with D3 and gCP

PLEASE CITE:
(1) HSE-3c Reference
 J. G. Brandenburg, E. Caldeweyer, and S. Grimme, 
 Phys. Chem. Chem. Phys. 18, 15519 (2016)
(2) DFT-D3 Reference
 S. Grimme, J. Antony, S. Ehrlich,
 and H. Krieg, J. Chem. Phys. 132, 154104 (2010)
(3) gCP Reference
 H. Kruse and S. Grimme J. Chem. Phys, 136, 154101 (2012)
 J. G. Brandenburg, M. Alessio, B. Civalleri, M. F. Peintinger
 T. Bredow, and S. Grimme, J. Phys. Chem. A, 117, 9282 (2013) 

 WARNING **** RDDFTP **** HSE3c-HJS ACTIVE
 RANGE SEPARATION - OMEGA:   0.110000000000000     
 WARNING **** RDDFTP **** HSE-3c has to be combined with def2-mSVP basis set
 WARNING **** RDDFTP **** Note: Harmonic frequencies are scaled by 0.95
 WARNING **** RDDFTP **** as recommended in original publication
 INFORMATION **** BIPOSIZE **** COULOMB BIPOLAR BUFFER SET TO    60000000
 INFORMATION **** EXCHSIZE **** EXCHANGE BIPOLAR BUFFER SIZE SET TO    40000000
 *******************************************************************************
 N. OF ATOMS PER CELL        72  COULOMB OVERLAP TOL         (T1) 10**   -6
 NUMBER OF SHELLS           264  COULOMB PENETRATION TOL     (T2) 10**   -6
 NUMBER OF AO               456  EXCHANGE OVERLAP TOL        (T3) 10**   -6
 N. OF ELECTRONS PER CELL   240  EXCHANGE PSEUDO OVP (F(G))  (T4) 10**   -6
 CORE ELECTRONS PER CELL     48  EXCHANGE PSEUDO OVP (P(G))  (T5) 10**  -12
 N. OF SYMMETRY OPERATORS     1  POLE ORDER IN MONO ZONE                  4
 *******************************************************************************
 TYPE OF CALCULATION :  RESTRICTED CLOSED SHELL
 KOHN-SHAM HAMILTONIAN

 (EXCHANGE)[CORRELATION] FUNCTIONAL:(HSE-3c)[PBEh-3c]

 RANGE-SEPARATED HYBRID FUNCTIONAL 
 OMEGA (SHORT-RANGE)[LONG-RANGE]:(    0.1100)[    0.0000]

 HYBRID EXCHANGE - PERCENTAGE OF FOCK EXCHANGE    42.0000

 CAPPA:IS1  2;IS2  2;IS3  2; K PTS MONK NET   8; SYMMOPS:K SPACE   2;G SPACE   1

 *******************************************************************************
 MAX NUMBER OF SCF CYCLES      50  CONVERGENCE ON DELTAP        10**-16
 WEIGHT OF F(I) IN F(I+1)      30% CONVERGENCE ON ENERGY        10**- 6
 S(K) EIGENV. THRESHOLD  10*10.**-4
 SHRINK. FACT.(MONKH.)    2  2  2  NUMBER OF K POINTS IN THE IBZ      8
 SHRINKING FACTOR(GILAT NET)    2  NUMBER OF K POINTS(GILAT NET)      8
 *******************************************************************************
 *** K POINTS COORDINATES (OBLIQUE COORDINATES IN UNITS OF IS =  2)
   1-R(  0  0  0)   2-R(  1  0  0)   3-R(  0  1  0)   4-R(  1  1  0)
   5-R(  0  0  1)   6-R(  1  0  1)   7-R(  0  1  1)   8-R(  1  1  1)

 DIRECT LATTICE VECTORS COMPON. (A.U.)     RECIP. LATTICE VECTORS COMPON. (A.U.) 
        X            Y            Z              X            Y            Z
   17.5739389    2.7986671    0.0000000      0.3575286    0.0000000    0.0081157
    0.0000000   15.7506505    0.0000000     -0.0635278    0.3989159    0.0145601
   -0.3495879   -0.6177814   15.4006383      0.0000000    0.0000000    0.4079821

 DISK SPACE FOR EIGENVECTORS (FTN 10)     1663488 REALS

 SYMMETRY ADAPTION OF THE BLOCH FUNCTIONS DISABLED
 TTTTTTTTTTTTTTTTTTTTTTTTTTTTTT gordsh1     TELAPSE        0.10 TCPU        0.05

 MATRIX SIZE: P(G)  266260, F(G)   47105, P(G) IRR  133838, F(G) IRR   47489
 MAX G-VECTOR INDEX FOR 1- AND 2-ELECTRON INTEGRALS  51

 TTTTTTTTTTTTTTTTTTTTTTTTTTTTTT INPUT       TELAPSE        0.24 TCPU        0.19

 NEIGHBORS OF THE NON-EQUIVALENT ATOMS

 N = NUMBER OF NEIGHBORS AT DISTANCE R
    ATOM  N     R/ANG      R/AU   NEIGHBORS (ATOM LABELS AND CELL INDICES)
   1 O    1     0.9629     1.8196   25 H    0 0 0
   1 O    1     0.9884     1.8677   26 H    0 0 1
   1 O    1     1.7657     3.3367   31 H    0 0 0
   1 O    1     2.0003     3.7800   39 H    0 0 0
   1 O    1     2.6730     5.0512   15 O    0 0 1
   1 O    1     2.7186     5.1373    4 O    0 0 0

   2 O    1     0.9710     1.8349   28 H    0 0 0
   2 O    1     0.9734     1.8395   27 H    0 0 0
   2 O    1     1.7129     3.2369   29 H    0 0 0
   2 O    1     2.6916     5.0864   15 O    0 0 0
   2 O    1     2.6962     5.0951    3 O    0 0 0
   2 O    1     2.8559     5.3968   13 O    0 0-1

   3 O    1     0.9857     1.8627   30 H    0 0-1
   3 O    1     0.9895     1.8698   29 H    0 0 0
   3 O    1     1.7141     3.2391   52 H    0 0-1
   3 O    1     1.8564     3.5081   63 H    0 0 0
   3 O    1     2.6726     5.0504   25 H    0 0-1
   3 O    1     2.6947     5.0922   18 O    0 0-1

   4 O    1     0.9804     1.8527   31 H    0 0 0
   4 O    1     0.9846     1.8607   32 H    0 0 1
   4 O    1     1.7531     3.3129   60 H    0 0 0
   4 O    1     1.8289     3.4561   50 H    0 0 0
   4 O    1     2.7186     5.1373    1 O    0 0 0
   4 O    1     2.7212     5.1423   18 O    0 1 0

   5 O    1     0.9766     1.8455   33 H    0 0 0
   5 O    1     0.9851     1.8615   34 H    0 0 0
   5 O    1     1.7297     3.2686   35 H    1 0 0
   5 O    1     1.7745     3.3533   69 H    0 0 0
   5 O    1     2.6653     5.0366   21 O    1 0 0
   5 O    1     2.6935     5.0900    6 O    1 0 0

   6 O    1     0.9737     1.8401   36 H    0 0 0
   6 O    1     0.9828     1.8571   35 H    0 0 0
   6 O    1     1.7396     3.2874   48 H    0 0 0
   6 O    1     1.8359     3.4694   54 H    0 0 0
   6 O    1     2.6581     5.0230   12 O    0 0 0
   6 O    1     2.6935     5.0900    5 O   -1 0 0

   7 O    1     0.9752     1.8428   38 H    0 0 0
   7 O    1     0.9849     1.8611   37 H    0 0 0
   7 O    1     1.6981     3.2089   68 H    0 0-1
   7 O    1     1.8298     3.4578   64 H    1 0 0
   7 O    1     2.6610     5.0285   22 O    0 0-1
   7 O    1     2.7000     5.1022    9 O    0 0 0

   8 O    1     0.9720     1.8367   39 H    0 0 0
   8 O    1     0.9843     1.8600   40 H    0 0 0
   8 O    1     1.7318     3.2726   62 H   -1 0 0
   8 O    1     1.7487     3.3046   66 H    0 0 1
   8 O    1     2.6875     5.0787   14 O    0 0 0
   8 O    1     2.7018     5.1056   19 O   -1 0 0

   9 O    1     0.9836     1.8588   41 H    0 0 0
   9 O    1     0.9859     1.8631   42 H    0 0 0
   9 O    1     1.6418     3.1025   58 H    0 0 0
   9 O    1     1.7319     3.2728   37 H    0 0 0
   9 O    1     2.6314     4.9727   17 O    0-1 0
   9 O    1     2.6756     5.0562   21 O    1-1 0

  10 O    1     0.9735     1.8396   44 H    0 0 0
  10 O    1     0.9797     1.8513   43 H    0 1 0
  10 O    1     1.7314     3.2719   71 H    0 0 0
  10 O    1     2.0404     3.8559   45 H    0 0 0
  10 O    1     2.7049     5.1115   24 O    0 0 0
  10 O    1     2.7266     5.1526   12 O    0 1 0

  11 O    1     0.9689     1.8310   45 H    0 0 0
  11 O    1     0.9735     1.8397   46 H    0 0 0
  11 O    1     1.8900     3.5716   56 H    0 0 0
  11 O    1     1.9444     3.6743   57 H    0 0 0
  11 O    1     2.8183     5.3259   16 O    0 0 0
  11 O    1     2.8367     5.3605   19 O    0 0 0

  12 O    1     0.9787     1.8494   47 H    0 0 0
  12 O    1     0.9846     1.8607   48 H    0 0 0
  12 O    1     1.7676     3.3403   43 H    0 0 0
  12 O    1     1.8459     3.4883   55 H    0 0 0
  12 O    1     2.3804     4.4983   59 H    0 0 0
  12 O    1     2.6581     5.0230    6 O    0 0 0

  13 O    1     0.9718     1.8365   49 H    0 0 0
  13 O    1     0.9785     1.8492   50 H    0 0 0
  13 O    1     1.7984     3.3984   38 H    0 0 1
  13 O    1     1.9007     3.5919   28 H    0 0 1
  13 O    1     2.7549     5.2059    7 O    0 0 1
  13 O    1     2.7790     5.2515    4 O    0 0 0

  14 O    1     0.9760     1.8444   51 H    0 0 0
  14 O    1     0.9843     1.8601   52 H    0 0 0
  14 O    1     1.7554     3.3173   40 H    0 0 0
  14 O    1     1.8849     3.5619   36 H    0 0 0
  14 O    1     2.6875     5.0787    8 O    0 0 0
  14 O    1     2.6975     5.0976    3 O    0 0 1

  15 O    1     0.9751     1.8427   54 H    0 0 0
  15 O    1     0.9896     1.8700   53 H    0 0 0
  15 O    1     1.7022     3.2167   26 H    0 0 0
  15 O    1     1.7917     3.3859   27 H    0 0 0
  15 O    1     2.5977     4.9090   24 O    0 0 0
  15 O    1     2.6730     5.0512    1 O    0 0-1

  16 O    1     0.9745     1.8415   56 H    0 0 0
  16 O    1     0.9766     1.8456   55 H    0 0 0
  16 O    1     1.7957     3.3934   70 H    0 0 0
  16 O    1     1.9267     3.6410   49 H    0 0 0
  16 O    1     2.7728     5.2398   23 O    0 0 0
  16 O    1     2.8183     5.3259   11 O    0 0 0

  17 O    1     0.9732     1.8391   57 H    0 0 0
  17 O    1     0.9924     1.8753   58 H    0 1 0
  17 O    1     1.7501     3.3073   32 H    0 0 0
  17 O    1     1.8533     3.5022   47 H    0 1 0
  17 O    1     2.6314     4.9727    9 O    0 1 0
  17 O    1     2.7326     5.1639    4 O    0 0-1

  18 O    1     0.9600     1.8140   59 H    0 0 0
  18 O    1     0.9813     1.8544   60 H    0-1 0
  18 O    1     1.7103     3.2320   30 H    0 0 0
  18 O    1     2.6947     5.0922    3 O    0 0 1
  18 O    1     2.7212     5.1423    4 O    0-1 0
  18 O    1     3.0023     5.6735   32 H    0-1 1

  19 O    1     0.9632     1.8202   61 H    0 0 0
  19 O    1     0.9837     1.8590   62 H    0 0 0
  19 O    1     1.8353     3.4682   33 H    0 0 0
  19 O    1     1.9015     3.5933   46 H    0 0 0
  19 O    1     2.7018     5.1056    8 O    1 0 0
  19 O    1     2.8083     5.3070    5 O    0 0 0

  20 O    1     0.9734     1.8395   63 H    0 0 0
  20 O    1     0.9748     1.8422   64 H    0 0 0
  20 O    1     1.5896     3.0040   72 H    0-1 0
  20 O    1     2.5877     4.8901   24 O    0-1 0
  20 O    1     2.7300     5.1589   48 H    0 0 0
  20 O    1     2.7900     5.2724    7 O   -1 0 0

  21 O    1     0.9814     1.8546   66 H    0 0 0
  21 O    1     0.9889     1.8687   65 H    0 0 0
  21 O    1     1.6914     3.1962   42 H   -1 1 0
  21 O    1     1.7145     3.2399   34 H   -1 0 0
  21 O    1     2.6565     5.0200   24 O    0 0 0
  21 O    1     2.6653     5.0366    5 O   -1 0 0

  22 O    1     0.9828     1.8573   67 H    0 0 0
  22 O    1     0.9870     1.8652   68 H    0 0 0
  22 O    1     1.8558     3.5070   51 H    1 0 0
  22 O    1     1.8696     3.5331   44 H    1-1 0
  22 O    1     2.5607     4.8391   61 H    0-1 0
  22 O    1     2.6610     5.0285    7 O    0 0 1

  23 O    1     0.9803     1.8525   69 H    0 0 0
  23 O    1     0.9812     1.8542   70 H    0 0 0
  23 O    1     1.7395     3.2873   41 H    0 0 0
  23 O    1     1.7435     3.2947   67 H    0 0 0
  23 O    1     2.7198     5.1396    9 O    0 0 0
  23 O    1     2.7262     5.1518   22 O    0 0 0

  24 O    1     0.9827     1.8571   71 H    0 0 0
  24 O    1     1.0004     1.8904   72 H    0 0 0
  24 O    1     1.6366     3.0928   53 H    0 0 0
  24 O    1     1.6735     3.1624   65 H    0 0 0
  24 O    1     2.5877     4.8901   20 O    0 1 0
  24 O    1     2.5977     4.9090   15 O    0 0 0

  25 H    1     0.9629     1.8196    1 O    0 0 0
  25 H    1     1.5499     2.9290   26 H    0 0 1
  25 H    1     2.2041     4.1652   31 H    0 0 0
  25 H    1     2.3623     4.4642   52 H    0 0 0
  25 H    1     2.5286     4.7784   39 H    0 0 0
  25 H    1     2.6726     5.0504    3 O    0 0 1

  26 H    1     0.9884     1.8677    1 O    0 0-1
  26 H    1     1.5499     2.9290   25 H    0 0-1
  26 H    1     1.7022     3.2167   15 O    0 0 0
  26 H    1     2.1177     4.0018   53 H    0 0 0
  26 H    1     2.1607     4.0831   31 H    0 0-1
  26 H    1     2.3000     4.3463   39 H    0 0-1

  27 H    1     0.9734     1.8395    2 O    0 0 0
  27 H    1     1.5457     2.9209   28 H    0 0 0
  27 H    1     1.7917     3.3859   15 O    0 0 0
  27 H    1     2.1051     3.9781   29 H    0 0 0
  27 H    1     2.1484     4.0599   54 H    0 0 0
  27 H    1     2.4810     4.6884   26 H    0 0 0

  28 H    1     0.9710     1.8349    2 O    0 0 0
  28 H    1     1.5457     2.9209   27 H    0 0 0
  28 H    1     1.9007     3.5919   13 O    0 0-1
  28 H    1     2.0840     3.9381   29 H    0 0 0
  28 H    1     2.2599     4.2707   50 H    0 0-1
  28 H    1     2.3984     4.5324   49 H    0 0-1

  29 H    1     0.9895     1.8698    3 O    0 0 0
  29 H    1     1.5547     2.9379   30 H    0 0-1
  29 H    1     1.7129     3.2369    2 O    0 0 0
  29 H    1     2.0840     3.9381   28 H    0 0 0
  29 H    1     2.1051     3.9781   27 H    0 0 0
  29 H    1     2.2495     4.2510   63 H    0 0 0

  30 H    1     0.9857     1.8627    3 O    0 0 1
  30 H    1     1.5547     2.9379   29 H    0 0 1
  30 H    1     1.7103     3.2320   18 O    0 0 0
  30 H    1     2.0975     3.9638   60 H    0-1 0
  30 H    1     2.1288     4.0229   59 H    0 0 0
  30 H    1     2.2798     4.3081   52 H    0 0 0

  31 H    1     0.9804     1.8527    4 O    0 0 0
  31 H    1     1.5516     2.9321   32 H    0 0 1
  31 H    1     1.7657     3.3367    1 O    0 0 0
  31 H    1     2.1607     4.0831   26 H    0 0 1
  31 H    1     2.1922     4.1427   50 H    0 0 0
  31 H    1     2.2041     4.1652   25 H    0 0 0

  32 H    1     0.9846     1.8607    4 O    0 0-1
  32 H    1     1.5516     2.9321   31 H    0 0-1
  32 H    1     1.7501     3.3073   17 O    0 0 0
  32 H    1     2.0506     3.8750   58 H    0 1 0
  32 H    1     2.1562     4.0747   60 H    0 0-1
  32 H    1     2.2278     4.2099   57 H    0 0 0

  33 H    1     0.9766     1.8455    5 O    0 0 0
  33 H    1     1.5311     2.8933   34 H    0 0 0
  33 H    1     1.8353     3.4682   19 O    0 0 0
  33 H    1     2.2221     4.1991   35 H    1 0 0
  33 H    1     2.2452     4.2429   62 H    0 0 0
  33 H    1     2.3178     4.3801   69 H    0 0 0

  34 H    1     0.9851     1.8615    5 O    0 0 0
  34 H    1     1.5311     2.8933   33 H    0 0 0
  34 H    1     1.7145     3.2399   21 O    1 0 0
  34 H    1     2.1277     4.0207   35 H    1 0 0
  34 H    1     2.2370     4.2273   65 H    1 0 0
  34 H    1     2.2468     4.2457   66 H    1 0 0

  35 H    1     0.9828     1.8571    6 O    0 0 0
  35 H    1     1.5380     2.9064   36 H    0 0 0
  35 H    1     1.7297     3.2686    5 O   -1 0 0
  35 H    1     2.1277     4.0207   34 H   -1 0 0
  35 H    1     2.2221     4.1991   33 H   -1 0 0
  35 H    1     2.2684     4.2866   54 H    0 0 0

  36 H    1     0.9737     1.8401    6 O    0 0 0
  36 H    1     1.5380     2.9064   35 H    0 0 0
  36 H    1     1.8849     3.5619   14 O    0 0 0
  36 H    1     2.0579     3.8890   48 H    0 0 0
  36 H    1     2.3398     4.4217   51 H    0 0 0
  36 H    1     2.4746     4.6763   52 H    0 0 0

  37 H    1     0.9849     1.8611    7 O    0 0 0
  37 H    1     1.5685     2.9641   38 H    0 0 0
  37 H    1     1.7319     3.2728    9 O    0 0 0
  37 H    1     2.1235     4.0129   41 H    0 0 0
  37 H    1     2.1679     4.0968   42 H    0 0 0
  37 H    1     2.2988     4.3441   68 H    0 0-1

  38 H    1     0.9752     1.8428    7 O    0 0 0
  38 H    1     1.5685     2.9641   37 H    0 0 0
  38 H    1     1.7984     3.3984   13 O    0 0-1
  38 H    1     2.1874     4.1336   68 H    0 0-1
  38 H    1     2.2973     4.3413   49 H    0 0-1
  38 H    1     2.3993     4.5341   28 H    0 0 0

  39 H    1     0.9720     1.8367    8 O    0 0 0
  39 H    1     1.5102     2.8538   40 H    0 0 0
  39 H    1     2.0003     3.7800    1 O    0 0 0
  39 H    1     2.2052     4.1673   66 H    0 0 1
  39 H    1     2.3000     4.3463   26 H    0 0 1
  39 H    1     2.3111     4.3673   62 H   -1 0 0

  40 H    1     0.9843     1.8600    8 O    0 0 0
  40 H    1     1.5102     2.8538   39 H    0 0 0
  40 H    1     1.7554     3.3173   14 O    0 0 0
  40 H    1     2.2395     4.2321   62 H   -1 0 0
  40 H    1     2.3262     4.3958   52 H    0 0 0
  40 H    1     2.3681     4.4751   66 H    0 0 1

  41 H    1     0.9836     1.8588    9 O    0 0 0
  41 H    1     1.6089     3.0405   42 H    0 0 0
  41 H    1     1.7395     3.2873   23 O    0 0 0
  41 H    1     2.1235     4.0129   37 H    0 0 0
  41 H    1     2.1512     4.0651   58 H    0 0 0
  41 H    1     2.2270     4.2084   69 H    0 0 0

  42 H    1     0.9859     1.8631    9 O    0 0 0
  42 H    1     1.6089     3.0405   41 H    0 0 0
  42 H    1     1.6914     3.1962   21 O    1-1 0
  42 H    1     2.0360     3.8475   65 H    1-1 0
  42 H    1     2.0862     3.9423   58 H    0 0 0
  42 H    1     2.1679     4.0968   37 H    0 0 0

  43 H    1     0.9797     1.8513   10 O    0-1 0
  43 H    1     1.5659     2.9591   44 H    0-1 0
  43 H    1     1.7676     3.3403   12 O    0 0 0
  43 H    1     2.0505     3.8748   71 H    0-1 0
  43 H    1     2.1913     4.1409   47 H    0 0 0
  43 H    1     2.1937     4.1454   48 H    0 0 0

  44 H    1     0.9735     1.8396   10 O    0 0 0
  44 H    1     1.5659     2.9591   43 H    0 1 0
  44 H    1     1.8696     3.5331   22 O   -1 1 0
  44 H    1     2.1044     3.9768   71 H    0 0 0
  44 H    1     2.4336     4.5988   51 H    0 1 0
  44 H    1     2.5429     4.8053   67 H   -1 1 0

  45 H    1     0.9689     1.8310   11 O    0 0 0
  45 H    1     1.5744     2.9752   46 H    0 0 0
  45 H    1     2.0404     3.8559   10 O    0 0 0
  45 H    1     2.3421     4.4259   57 H    0 0 0
  45 H    1     2.3447     4.4309   56 H    0 0 0
  45 H    1     2.3769     4.4917   43 H    0 1 0

  46 H    1     0.9735     1.8397   11 O    0 0 0
  46 H    1     1.5744     2.9752   45 H    0 0 0
  46 H    1     1.9015     3.5933   19 O    0 0 0
  46 H    1     2.2789     4.3065   56 H    0 0 0
  46 H    1     2.4034     4.5418   57 H    0 0 0
  46 H    1     2.4520     4.6337   61 H    0 0 0

  47 H    1     0.9787     1.8494   12 O    0 0 0
  47 H    1     1.5883     3.0014   48 H    0 0 0
  47 H    1     1.8533     3.5022   17 O    0-1 0
  47 H    1     2.1913     4.1409   43 H    0 0 0
  47 H    1     2.1923     4.1428   58 H    0 0 0
  47 H    1     2.2351     4.2238   57 H    0-1 0

  48 H    1     0.9846     1.8607   12 O    0 0 0
  48 H    1     1.5883     3.0014   47 H    0 0 0
  48 H    1     1.7396     3.2874    6 O    0 0 0
  48 H    1     2.0579     3.8890   36 H    0 0 0
  48 H    1     2.1803     4.1202   55 H    0 0 0
  48 H    1     2.1937     4.1454   43 H    0 0 0

  49 H    1     0.9718     1.8365   13 O    0 0 0
  49 H    1     1.5617     2.9512   50 H    0 0 0
  49 H    1     1.9267     3.6410   16 O    0 0 0
  49 H    1     2.2973     4.3413   38 H    0 0 1
  49 H    1     2.3984     4.5324   28 H    0 0 1
  49 H    1     2.4180     4.5693   56 H    0 0 0

  50 H    1     0.9785     1.8492   13 O    0 0 0
  50 H    1     1.5617     2.9512   49 H    0 0 0
  50 H    1     1.8289     3.4561    4 O    0 0 0
  50 H    1     2.1922     4.1427   31 H    0 0 0
  50 H    1     2.2599     4.2707   28 H    0 0 1
  50 H    1     2.4425     4.6157   32 H    0 0 1

  51 H    1     0.9760     1.8444   14 O    0 0 0
  51 H    1     1.5756     2.9775   52 H    0 0 0
  51 H    1     1.8558     3.5070   22 O   -1 0 0
  51 H    1     2.0616     3.8959   68 H   -1 0 0
  51 H    1     2.1923     4.1429   67 H   -1 0 0
  51 H    1     2.3398     4.4217   36 H    0 0 0

  52 H    1     0.9843     1.8601   14 O    0 0 0
  52 H    1     1.5756     2.9775   51 H    0 0 0
  52 H    1     1.7141     3.2391    3 O    0 0 1
  52 H    1     2.2798     4.3081   30 H    0 0 0
  52 H    1     2.3262     4.3958   40 H    0 0 0
  52 H    1     2.3532     4.4469   63 H    0 0 1

  53 H    1     0.9896     1.8700   15 O    0 0 0
  53 H    1     1.5502     2.9294   54 H    0 0 0
  53 H    1     1.6366     3.0928   24 O    0 0 0
  53 H    1     2.0655     3.9031   71 H    0 0 0
  53 H    1     2.1177     4.0018   26 H    0 0 0
  53 H    1     2.3073     4.3601   72 H    0 0 0

  54 H    1     0.9751     1.8427   15 O    0 0 0
  54 H    1     1.5502     2.9294   53 H    0 0 0
  54 H    1     1.8359     3.4694    6 O    0 0 0
  54 H    1     2.1484     4.0599   27 H    0 0 0
  54 H    1     2.2684     4.2866   35 H    0 0 0
  54 H    1     2.4572     4.6435   26 H    0 0 0

  55 H    1     0.9766     1.8456   16 O    0 0 0
  55 H    1     1.5794     2.9846   56 H    0 0 0
  55 H    1     1.8459     3.4883   12 O    0 0 0
  55 H    1     2.1257     4.0171   70 H    0 0 0
  55 H    1     2.1803     4.1202   48 H    0 0 0
  55 H    1     2.4498     4.6295   47 H    0 0 0

  56 H    1     0.9745     1.8415   16 O    0 0 0
  56 H    1     1.5794     2.9846   55 H    0 0 0
  56 H    1     1.8900     3.5716   11 O    0 0 0
  56 H    1     2.2681     4.2861   70 H    0 0 0
  56 H    1     2.2789     4.3065   46 H    0 0 0
  56 H    1     2.3447     4.4309   45 H    0 0 0

  57 H    1     0.9732     1.8391   17 O    0 0 0
  57 H    1     1.5837     2.9928   58 H    0 1 0
  57 H    1     1.9444     3.6743   11 O    0 0 0
  57 H    1     2.2278     4.2099   32 H    0 0 0
  57 H    1     2.2351     4.2238   47 H    0 1 0
  57 H    1     2.3421     4.4259   45 H    0 0 0

  58 H    1     0.9924     1.8753   17 O    0-1 0
  58 H    1     1.5837     2.9928   57 H    0-1 0
  58 H    1     1.6418     3.1025    9 O    0 0 0
  58 H    1     2.0506     3.8750   32 H    0-1 0
  58 H    1     2.0862     3.9423   42 H    0 0 0
  58 H    1     2.1512     4.0651   41 H    0 0 0

  59 H    1     0.9600     1.8140   18 O    0 0 0
  59 H    1     1.5539     2.9364   60 H    0-1 0
  59 H    1     2.1288     4.0229   30 H    0 0 0
  59 H    1     2.3804     4.4983   12 O    0 0 0
  59 H    1     2.4139     4.5616   43 H    0 0 0
  59 H    1     2.5024     4.7288   55 H    0 0 0

  60 H    1     0.9813     1.8544   18 O    0 1 0
  60 H    1     1.5539     2.9364   59 H    0 1 0
  60 H    1     1.7531     3.3129    4 O    0 0 0
  60 H    1     2.0975     3.9638   30 H    0 1 0
  60 H    1     2.1562     4.0747   32 H    0 0 1
  60 H    1     2.3281     4.3994   31 H    0 0 0

  61 H    1     0.9632     1.8202   19 O    0 0 0
  61 H    1     1.5316     2.8944   62 H    0 0 0
  61 H    1     2.4520     4.6337   46 H    0 0 0
  61 H    1     2.4584     4.6456   33 H    0 0 0
  61 H    1     2.5501     4.8189   67 H    0 1 0
  61 H    1     2.5607     4.8391   22 O    0 1 0

  62 H    1     0.9837     1.8590   19 O    0 0 0
  62 H    1     1.5316     2.8944   61 H    0 0 0
  62 H    1     1.7318     3.2726    8 O    1 0 0
  62 H    1     2.2395     4.2321   40 H    1 0 0
  62 H    1     2.2452     4.2429   33 H    0 0 0
  62 H    1     2.3111     4.3673   39 H    1 0 0

  63 H    1     0.9734     1.8395   20 O    0 0 0
  63 H    1     1.5740     2.9744   64 H    0 0 0
  63 H    1     1.8564     3.5081    3 O    0 0 0
  63 H    1     2.2085     4.1734   72 H    0-1 0
  63 H    1     2.2495     4.2510   29 H    0 0 0
  63 H    1     2.3532     4.4469   52 H    0 0-1

  64 H    1     0.9748     1.8422   20 O    0 0 0
  64 H    1     1.5740     2.9744   63 H    0 0 0
  64 H    1     1.8298     3.4578    7 O   -1 0 0
  64 H    1     2.1530     4.0686   72 H    0-1 0
  64 H    1     2.3064     4.3584   37 H   -1 0 0
  64 H    1     2.4947     4.7142   38 H   -1 0 0

  65 H    1     0.9889     1.8687   21 O    0 0 0
  65 H    1     1.5820     2.9895   66 H    0 0 0
  65 H    1     1.6735     3.1624   24 O    0 0 0
  65 H    1     2.0360     3.8475   42 H   -1 1 0
  65 H    1     2.2370     4.2273   34 H   -1 0 0
  65 H    1     2.2587     4.2684   72 H    0 0 0

  66 H    1     0.9814     1.8546   21 O    0 0 0
  66 H    1     1.5820     2.9895   65 H    0 0 0
  66 H    1     1.7487     3.3046    8 O    0 0-1
  66 H    1     2.2052     4.1673   39 H    0 0-1
  66 H    1     2.2468     4.2457   34 H   -1 0 0
  66 H    1     2.2775     4.3039   42 H   -1 1 0

  67 H    1     0.9828     1.8573   22 O    0 0 0
  67 H    1     1.5832     2.9919   68 H    0 0 0
  67 H    1     1.7435     3.2947   23 O    0 0 0
  67 H    1     2.1923     4.1429   51 H    1 0 0
  67 H    1     2.2805     4.3096   70 H    0 0 0
  67 H    1     2.3180     4.3804   69 H    0 0 0

  68 H    1     0.9870     1.8652   22 O    0 0 0
  68 H    1     1.5832     2.9919   67 H    0 0 0
  68 H    1     1.6981     3.2089    7 O    0 0 1
  68 H    1     2.0616     3.8959   51 H    1 0 0
  68 H    1     2.1874     4.1336   38 H    0 0 1
  68 H    1     2.2988     4.3441   37 H    0 0 1

  69 H    1     0.9803     1.8525   23 O    0 0 0
  69 H    1     1.5355     2.9016   70 H    0 0 0
  69 H    1     1.7745     3.3533    5 O    0 0 0
  69 H    1     2.2270     4.2084   41 H    0 0 0
  69 H    1     2.3178     4.3801   33 H    0 0 0
  69 H    1     2.3180     4.3804   67 H    0 0 0

  70 H    1     0.9812     1.8542   23 O    0 0 0
  70 H    1     1.5355     2.9016   69 H    0 0 0
  70 H    1     1.7957     3.3934   16 O    0 0 0
  70 H    1     2.1257     4.0171   55 H    0 0 0
  70 H    1     2.2681     4.2861   56 H    0 0 0
  70 H    1     2.2785     4.3058   41 H    0 0 0

  71 H    1     0.9827     1.8571   24 O    0 0 0
  71 H    1     1.5952     3.0146   72 H    0 0 0
  71 H    1     1.7314     3.2719   10 O    0 0 0
  71 H    1     2.0505     3.8748   43 H    0 1 0
  71 H    1     2.0655     3.9031   53 H    0 0 0
  71 H    1     2.1044     3.9768   44 H    0 0 0

  72 H    1     1.0004     1.8904   24 O    0 0 0
  72 H    1     1.5896     3.0040   20 O    0 1 0
  72 H    1     1.5952     3.0146   71 H    0 0 0
  72 H    1     2.1530     4.0686   64 H    0 1 0
  72 H    1     2.2085     4.1734   63 H    0 1 0
  72 H    1     2.2587     4.2684   65 H    0 0 0


 SYMMETRY ALLOWED INTERNAL DEGREE(S) OF FREEDOM: 213
 TTTTTTTTTTTTTTTTTTTTTTTTTTTTTT SYMM        TELAPSE        0.25 TCPU        0.20
 TTTTTTTTTTTTTTTTTTTTTTTTTTTTTT INT_SCREEN  TELAPSE        0.26 TCPU        0.21

 DFT PARAMETERS

     ATOM       ELECTRONS   NET CHARGE   R(ANGSTROM)
   1   8  O       8.0000      0.0000     0.74000000
  25   1  H       1.0000      0.0000     1.11000000

 SIZE OF GRID=    1624089
 TTTTTTTTTTTTTTTTTTTTTTTTTTTTTT MAKE_GRID2  TELAPSE       21.31 TCPU       21.26
 BECKE WEIGHT FUNCTION
 RADSAFE =     2.00
 TOLERANCES - DENSITY:10**- 6; POTENTIAL:10**- 9; GRID WGT:10**-14

 RADIAL INTEGRATION  - INTERVALS (POINTS,UPPER LIMIT):            1( 75,  4.0*R)

 ANGULAR INTEGRATION - INTERVALS (ACCURACY LEVEL [N. POINTS] UPPER LIMIT):
  1(  4[  86]   0.2)  2(  8[ 194]   0.5)  3( 12[ 350]   0.9)  4( 16[ 974]   3.5)
  5( 12[ 350]9999.0)
 TTTTTTTTTTTTTTTTTTTTTTTTTTTTTT INT_CALC    TELAPSE       21.36 TCPU       21.31
 EEEEEEEEEE INT_CALC TERMINATION  DATE 25 03 2019 TIME 17:53:01.7

 *******************************************************************************
 !drive by JGB                                                                   
 CRYSTAL - SCF - TYPE OF CALCULATION :  RESTRICTED CLOSED SHELL
 *******************************************************************************

 CAPPA:IS1  2;IS2  2;IS3  2; K PTS MONK NET   8; SYMMOPS:K SPACE   2;G SPACE   1

 TTTTTTTTTTTTTTTTTTTTTTTTTTTTTT SDIK        TELAPSE       22.96 TCPU       22.73

 AAAAAAAAAAAAAAAAAAAAAAAAAAAAAAAAAAAAAAAAAAAAAAAAAAAAAAAAAAAAAAAAAAAAAAAAAAAAAAA
         ATOMIC WAVEFUNCTION(S)


 NUCLEAR CHARGE  8.0  SYMMETRY SPECIES            S    P
 N. ELECTRONS    8.0  NUMBER OF PRIMITIVE GTOS    8    4
                      NUMBER OF CONTRACTED GTOS   4    2
                      NUMBER OF CLOSED SHELLS     2    0
                      OPEN SHELL OCCUPATION       0    4

  ZNUC SCFIT  TOTAL HF ENERGY   KINETIC ENERGY   VIRIAL THEOREM ACCURACY
   8.0  12   -7.477373220E+01  7.477365593E+01 -2.000001020E+00  3.8E-06

 NUCLEAR CHARGE  1.0  SYMMETRY SPECIES            S
 N. ELECTRONS    1.0  NUMBER OF PRIMITIVE GTOS    4
                      NUMBER OF CONTRACTED GTOS   2
                      NUMBER OF CLOSED SHELLS     0
                      OPEN SHELL OCCUPATION       1

  ZNUC SCFIT  TOTAL HF ENERGY   KINETIC ENERGY   VIRIAL THEOREM ACCURACY
   1.0   1   -4.977266687E-01  5.190767460E-01 -1.958869132E+00  1.8E-16

 AAAAAAAAAAAAAAAAAAAAAAAAAAAAAAAAAAAAAAAAAAAAAAAAAAAAAAAAAAAAAAAAAAAAAAAAAAAAAAA

 CHARGE NORMALIZATION FACTOR   1.00000000
 TOTAL ATOMIC CHARGES:
   8.0000000   8.0000000   8.0000000   8.0000000   8.0000000   8.0000000
   8.0000000   8.0000000   8.0000000   8.0000000   8.0000000   8.0000000
   8.0000000   8.0000000   8.0000000   8.0000000   8.0000000   8.0000000
   8.0000000   8.0000000   8.0000000   8.0000000   8.0000000   8.0000000
   1.0000000   1.0000000   1.0000000   1.0000000   1.0000000   1.0000000
   1.0000000   1.0000000   1.0000000   1.0000000   1.0000000   1.0000000
   1.0000000   1.0000000   1.0000000   1.0000000   1.0000000   1.0000000
   1.0000000   1.0000000   1.0000000   1.0000000   1.0000000   1.0000000
   1.0000000   1.0000000   1.0000000   1.0000000   1.0000000   1.0000000
   1.0000000   1.0000000   1.0000000   1.0000000   1.0000000   1.0000000
   1.0000000   1.0000000   1.0000000   1.0000000   1.0000000   1.0000000
   1.0000000   1.0000000   1.0000000   1.0000000   1.0000000   1.0000000
 TTTTTTTTTTTTTTTTTTTTTTTTTTTTTT MOQGAD      TELAPSE       23.31 TCPU       23.08
 TTTTTTTTTTTTTTTTTTTTTTTTTTTTTT SHELLXN     TELAPSE       75.02 TCPU       74.72
 TTTTTTTTTTTTTTTTTTTTTTTTTTTTTT MONMO3      TELAPSE       78.52 TCPU       78.22
 NUMERICALLY INTEGRATED DENSITY    240.0000034603
 TTTTTTTTTTTTTTTTTTTTTTTTTTTTTT NUMDFT      TELAPSE       81.88 TCPU       81.58
 CYC   0 ETOT(AU) -1.831626181612E+03 DETOT -1.83E+03 tst  0.00E+00 PX  1.00E+00
 TTTTTTTTTTTTTTTTTTTTTTTTTTTTTT DIIS        TELAPSE       81.90 TCPU       81.59
 TTTTTTTTTTTTTTTTTTTTTTTTTTTTTT FDIK        TELAPSE       82.75 TCPU       82.37
 INSULATING STATE
 TOP OF VALENCE BANDS -    BAND    120; K    7; EIG -4.1370833E-01 AU
 TOP OF VALENCE BANDS -    BAND    120; K    1; EIG -4.1485432E-01 AU
 BOTTOM OF VIRTUAL BANDS - BAND    121; K    1; EIG -8.5715238E-02 AU
 INDIRECT ENERGY BAND GAP:   8.9251 eV
 TTTTTTTTTTTTTTTTTTTTTTTTTTTTTT PDIG        TELAPSE       82.79 TCPU       82.40
 CHARGE NORMALIZATION FACTOR   1.00000000
 TOTAL ATOMIC CHARGES:
   9.0492009   9.0813873   9.0923625   9.0743619   9.0705008   9.0790066
   9.0713248   9.0412453   9.0670274   9.0757553   9.0530610   9.0618401
   9.0719087   9.0819075   9.0870493   9.0673350   9.0692102   9.0674725
   9.0538133   9.0862895   9.0703533   9.0884959   9.0582684   9.0819117
   0.4678646   0.4669042   0.4667235   0.4721152   0.4706989   0.4729246
   0.4696228   0.4686677   0.4695215   0.4594483   0.4673354   0.4628854
   0.4635661   0.4553162   0.4634633   0.4616364   0.4621336   0.4641876
   0.4704168   0.4558655   0.4597469   0.4619848   0.4639619   0.4623185
   0.4631839   0.4606386   0.4751288   0.4581325   0.4610647   0.4593689
   0.4613160   0.4657395   0.4709421   0.4641906   0.4649518   0.4665472
   0.4667051   0.4594625   0.4628987   0.4635726   0.4620566   0.4622766
   0.4633066   0.4666075   0.4589611   0.4700081   0.4702305   0.4623106
 TTTTTTTTTTTTTTTTTTTTTTTTTTTTTT MOQGAD      TELAPSE       82.80 TCPU       82.41
 TTTTTTTTTTTTTTTTTTTTTTTTTTTTTT SHELLXN     TELAPSE      135.18 TCPU      134.79
 TTTTTTTTTTTTTTTTTTTTTTTTTTTTTT MONMO3      TELAPSE      138.59 TCPU      138.20
 NUMERICALLY INTEGRATED DENSITY    240.0000033565
 TTTTTTTTTTTTTTTTTTTTTTTTTTTTTT NUMDFT      TELAPSE      144.58 TCPU      144.19
 CYC   1 ETOT(AU) -1.830393214505E+03 DETOT  1.23E+00 tst  0.00E+00 PX  1.00E+00
 TTTTTTTTTTTTTTTTTTTTTTTTTTTTTT DIIS        TELAPSE      144.68 TCPU      144.28
 DIIS TEST: 0.26102E+01 AT SCF   CYCLE   1 - MIX   30 %
 TTTTTTTTTTTTTTTTTTTTTTTTTTTTTT FDIK        TELAPSE      144.89 TCPU      144.48
 INSULATING STATE
 TOP OF VALENCE BANDS -    BAND    120; K    8; EIG -3.0023628E-01 AU
 TOP OF VALENCE BANDS -    BAND    120; K    1; EIG -3.0120584E-01 AU
 BOTTOM OF VIRTUAL BANDS - BAND    121; K    1; EIG -2.8254848E-02 AU
 INDIRECT ENERGY BAND GAP:   7.4010 eV
 TTTTTTTTTTTTTTTTTTTTTTTTTTTTTT PDIG        TELAPSE      144.92 TCPU      144.52
 CHARGE NORMALIZATION FACTOR   1.00000000
 TOTAL ATOMIC CHARGES:
   8.8105401   8.8205922   8.8822176   8.8601517   8.8531033   8.8524720
   8.8637354   8.8337892   8.8590669   8.8415117   8.8181309   8.8667878
   8.8490224   8.8659237   8.8719393   8.8420489   8.8398810   8.7975585
   8.8153346   8.8530378   8.8692664   8.8584397   8.8552808   8.8890151
   0.6029615   0.5739282   0.5922372   0.6044029   0.5830657   0.5828205
   0.5811258   0.5735328   0.5832243   0.5613358   0.5741630   0.5855246
   0.5599501   0.5601448   0.5726643   0.5605590   0.5657366   0.5706490
   0.5916884   0.5696018   0.5789442   0.5767492   0.5643805   0.5559652
   0.5765054   0.5734496   0.5967617   0.5685759   0.5606696   0.5691982
   0.5713028   0.5760366   0.5938021   0.5624818   0.6167358   0.5817374
   0.5975262   0.5567894   0.5819120   0.5826830   0.5647869   0.5612995
   0.5748798   0.5726167   0.5561528   0.5733754   0.5799712   0.5565476
 TTTTTTTTTTTTTTTTTTTTTTTTTTTTTT MOQGAD      TELAPSE      144.93 TCPU      144.53
 TTTTTTTTTTTTTTTTTTTTTTTTTTTTTT SHELLXN     TELAPSE      196.39 TCPU      195.98
 TTTTTTTTTTTTTTTTTTTTTTTTTTTTTT MONMO3      TELAPSE      199.83 TCPU      199.42
 NUMERICALLY INTEGRATED DENSITY    240.0000035285
 TTTTTTTTTTTTTTTTTTTTTTTTTTTTTT NUMDFT      TELAPSE      205.86 TCPU      205.45
 CYC   2 ETOT(AU) -1.830921956125E+03 DETOT -5.29E-01 tst  1.43E-03 PX  1.39E-01
 TTTTTTTTTTTTTTTTTTTTTTTTTTTTTT DIIS        TELAPSE      205.97 TCPU      205.56
 DIIS TEST: 0.57315E+00 AT SCF   CYCLE   2 - DIIS ACTIVE - HISTORY:     2 CYCLES
 TTTTTTTTTTTTTTTTTTTTTTTTTTTTTT FDIK        TELAPSE      206.18 TCPU      205.74
 INSULATING STATE
 TOP OF VALENCE BANDS -    BAND    120; K    8; EIG -3.4939972E-01 AU
 TOP OF VALENCE BANDS -    BAND    120; K    1; EIG -3.5069934E-01 AU
 BOTTOM OF VIRTUAL BANDS - BAND    121; K    1; EIG -3.0631413E-02 AU
 INDIRECT ENERGY BAND GAP:   8.6741 eV
 TTTTTTTTTTTTTTTTTTTTTTTTTTTTTT PDIG        TELAPSE      206.22 TCPU      205.78
 CHARGE NORMALIZATION FACTOR   1.00000000
 TOTAL ATOMIC CHARGES:
   8.8938168   8.9069758   8.9488062   8.9313857   8.9251082   8.9270918
   8.9322496   8.9054801   8.9298585   8.9213196   8.9011327   8.9353199
   8.9259608   8.9377357   8.9415828   8.9236064   8.9227165   8.8866514
   8.8966167   8.9280565   8.9374883   8.9442089   8.9227514   8.9500972
   0.5657822   0.5341993   0.5492728   0.5604475   0.5428096   0.5423719
   0.5414947   0.5359721   0.5467530   0.5262046   0.5358397   0.5479502
   0.5254869   0.5272907   0.5387775   0.5256253   0.5302411   0.5357682
   0.5501600   0.5325151   0.5404219   0.5381131   0.5288151   0.5195506
   0.5390503   0.5351123   0.5565380   0.5312429   0.5250318   0.5348299
   0.5325385   0.5366854   0.5524158   0.5246990   0.5769139   0.5379957
   0.5607601   0.5195062   0.5426924   0.5440653   0.5300257   0.5287579
   0.5353037   0.5330121   0.5228527   0.5366886   0.5434089   0.5219927
 TTTTTTTTTTTTTTTTTTTTTTTTTTTTTT MOQGAD      TELAPSE      206.23 TCPU      205.79
 TTTTTTTTTTTTTTTTTTTTTTTTTTTTTT SHELLXN     TELAPSE      257.74 TCPU      257.30
 TTTTTTTTTTTTTTTTTTTTTTTTTTTTTT MONMO3      TELAPSE      261.32 TCPU      260.88
 NUMERICALLY INTEGRATED DENSITY    240.0000037414
 TTTTTTTTTTTTTTTTTTTTTTTTTTTTTT NUMDFT      TELAPSE      267.65 TCPU      267.20
 CYC   3 ETOT(AU) -1.831072102602E+03 DETOT -1.50E-01 tst  1.89E-04 PX  5.55E-02
 TTTTTTTTTTTTTTTTTTTTTTTTTTTTTT DIIS        TELAPSE      267.74 TCPU      267.29
 DIIS TEST: 0.49902E-02 AT SCF   CYCLE   3 - DIIS ACTIVE - HISTORY:     3 CYCLES
 TTTTTTTTTTTTTTTTTTTTTTTTTTTTTT FDIK        TELAPSE      267.94 TCPU      267.47
 INSULATING STATE
 TOP OF VALENCE BANDS -    BAND    120; K    8; EIG -3.4643282E-01 AU
 TOP OF VALENCE BANDS -    BAND    120; K    1; EIG -3.4735082E-01 AU
 BOTTOM OF VIRTUAL BANDS - BAND    121; K    1; EIG -2.7469165E-02 AU
 INDIRECT ENERGY BAND GAP:   8.6794 eV
 TTTTTTTTTTTTTTTTTTTTTTTTTTTTTT PDIG        TELAPSE      267.98 TCPU      267.51
 CHARGE NORMALIZATION FACTOR   1.00000000
 TOTAL ATOMIC CHARGES:
   8.8825695   8.8972301   8.9548925   8.9333650   8.9240814   8.9245236
   8.9328378   8.9029911   8.9311832   8.9145604   8.8906281   8.9368832
   8.9207341   8.9373003   8.9429388   8.9149775   8.9156009   8.8728656
   8.8866807   8.9238055   8.9386960   8.9348943   8.9246304   8.9593168
   0.5698425   0.5374664   0.5524139   0.5640029   0.5430668   0.5427233
   0.5423594   0.5372904   0.5478234   0.5268861   0.5369979   0.5484031
   0.5260230   0.5280160   0.5408411   0.5269772   0.5300711   0.5349114
   0.5518117   0.5354134   0.5450293   0.5425215   0.5299947   0.5205822
   0.5416056   0.5369596   0.5574115   0.5309686   0.5241166   0.5353312
   0.5354989   0.5407527   0.5556551   0.5268094   0.5820827   0.5423594
   0.5653091   0.5233330   0.5437213   0.5451170   0.5286283   0.5287844
   0.5379256   0.5356974   0.5233372   0.5371170   0.5413669   0.5204562
 TTTTTTTTTTTTTTTTTTTTTTTTTTTTTT MOQGAD      TELAPSE      267.99 TCPU      267.51
 TTTTTTTTTTTTTTTTTTTTTTTTTTTTTT SHELLXN     TELAPSE      320.44 TCPU      319.76
 TTTTTTTTTTTTTTTTTTTTTTTTTTTTTT MONMO3      TELAPSE      328.79 TCPU      328.08
 NUMERICALLY INTEGRATED DENSITY    240.0000037075
 TTTTTTTTTTTTTTTTTTTTTTTTTTTTTT NUMDFT      TELAPSE      335.19 TCPU      334.46
 CYC   4 ETOT(AU) -1.831072602767E+03 DETOT -5.00E-04 tst  1.49E-06 PX  6.41E-03
 TTTTTTTTTTTTTTTTTTTTTTTTTTTTTT DIIS        TELAPSE      335.29 TCPU      334.54
 DIIS TEST: 0.75836E-03 AT SCF   CYCLE   4 - DIIS ACTIVE - HISTORY:     4 CYCLES
 TTTTTTTTTTTTTTTTTTTTTTTTTTTTTT FDIK        TELAPSE      335.47 TCPU      334.70
 INSULATING STATE
 TOP OF VALENCE BANDS -    BAND    120; K    8; EIG -3.4767295E-01 AU
 TOP OF VALENCE BANDS -    BAND    120; K    1; EIG -3.4892793E-01 AU
 BOTTOM OF VIRTUAL BANDS - BAND    121; K    1; EIG -2.7350334E-02 AU
 INDIRECT ENERGY BAND GAP:   8.7164 eV
 TTTTTTTTTTTTTTTTTTTTTTTTTTTTTT PDIG        TELAPSE      335.52 TCPU      334.74
 CHARGE NORMALIZATION FACTOR   1.00000000
 TOTAL ATOMIC CHARGES:
   8.8893981   8.9030915   8.9462071   8.9279202   8.9223705   8.9243817
   8.9292802   8.9019109   8.9280696   8.9177773   8.8958694   8.9318361
   8.9219229   8.9349718   8.9389303   8.9194410   8.9194701   8.8819229
   8.8916937   8.9255605   8.9357688   8.9402871   8.9200798   8.9491382
   0.5679019   0.5359095   0.5509823   0.5621671   0.5444730   0.5439529
   0.5432586   0.5380222   0.5482122   0.5276974   0.5373371   0.5490140
   0.5272204   0.5289533   0.5408935   0.5273843   0.5314397   0.5363868
   0.5514499   0.5342642   0.5429196   0.5402999   0.5309182   0.5217612
   0.5411222   0.5368160   0.5578289   0.5323543   0.5262519   0.5365719
   0.5343738   0.5389318   0.5542665   0.5261614   0.5791053   0.5398132
   0.5633607   0.5216076   0.5440927   0.5452376   0.5307640   0.5298745
   0.5368309   0.5346252   0.5246532   0.5380948   0.5441346   0.5230085
 TTTTTTTTTTTTTTTTTTTTTTTTTTTTTT MOQGAD      TELAPSE      335.53 TCPU      334.75
 TTTTTTTTTTTTTTTTTTTTTTTTTTTTTT SHELLXN     TELAPSE      387.89 TCPU      386.90
 TTTTTTTTTTTTTTTTTTTTTTTTTTTTTT MONMO3      TELAPSE      391.61 TCPU      390.60
 NUMERICALLY INTEGRATED DENSITY    240.0000037811
 TTTTTTTTTTTTTTTTTTTTTTTTTTTTTT NUMDFT      TELAPSE      397.74 TCPU      396.71
 CYC   5 ETOT(AU) -1.831072697256E+03 DETOT -9.45E-05 tst  5.64E-07 PX  4.68E-03
 TTTTTTTTTTTTTTTTTTTTTTTTTTTTTT DIIS        TELAPSE      397.84 TCPU      396.81
 DIIS TEST: 0.41087E-03 AT SCF   CYCLE   5 - DIIS ACTIVE - HISTORY:     5 CYCLES
 TTTTTTTTTTTTTTTTTTTTTTTTTTTTTT FDIK        TELAPSE      398.05 TCPU      396.96
 INSULATING STATE
 TOP OF VALENCE BANDS -    BAND    120; K    8; EIG -3.4724508E-01 AU
 TOP OF VALENCE BANDS -    BAND    120; K    1; EIG -3.4832903E-01 AU
 BOTTOM OF VIRTUAL BANDS - BAND    121; K    1; EIG -2.7299456E-02 AU
 INDIRECT ENERGY BAND GAP:   8.7062 eV
 TTTTTTTTTTTTTTTTTTTTTTTTTTTTTT PDIG        TELAPSE      398.08 TCPU      397.00
 CHARGE NORMALIZATION FACTOR   1.00000000
 TOTAL ATOMIC CHARGES:
   8.8862876   8.9004684   8.9506533   8.9310782   8.9231500   8.9242808
   8.9311361   8.9025944   8.9293478   8.9163092   8.8941439   8.9345834
   8.9216069   8.9359730   8.9408172   8.9176528   8.9177407   8.8779385
   8.8898570   8.9244153   8.9366977   8.9379086   8.9223099   8.9536064
   0.5689296   0.5366147   0.5515930   0.5630046   0.5435965   0.5431718
   0.5426721   0.5373750   0.5480819   0.5272787   0.5371811   0.5488675
   0.5265092   0.5284006   0.5408285   0.5271083   0.5308017   0.5358575
   0.5516937   0.5347489   0.5436840   0.5411010   0.5302740   0.5210528
   0.5412694   0.5367008   0.5577277   0.5317072   0.5252169   0.5359476
   0.5346957   0.5396048   0.5548955   0.5263747   0.5805279   0.5407470
   0.5641677   0.5221048   0.5439742   0.5453022   0.5299879   0.5294234
   0.5372668   0.5350427   0.5239446   0.5375828   0.5429585   0.5218449
 TTTTTTTTTTTTTTTTTTTTTTTTTTTTTT MOQGAD      TELAPSE      398.10 TCPU      397.01
 TTTTTTTTTTTTTTTTTTTTTTTTTTTTTT SHELLXN     TELAPSE      450.57 TCPU      449.27
 TTTTTTTTTTTTTTTTTTTTTTTTTTTTTT MONMO3      TELAPSE      454.29 TCPU      452.98
 NUMERICALLY INTEGRATED DENSITY    240.0000037565
 TTTTTTTTTTTTTTTTTTTTTTTTTTTTTT NUMDFT      TELAPSE      460.47 TCPU      459.14
 CYC   6 ETOT(AU) -1.831072802056E+03 DETOT -1.05E-04 tst  1.12E-07 PX  2.08E-03
 TTTTTTTTTTTTTTTTTTTTTTTTTTTTTT DIIS        TELAPSE      460.57 TCPU      459.24
 DIIS TEST: 0.46424E-04 AT SCF   CYCLE   6 - DIIS ACTIVE - HISTORY:     6 CYCLES
 TTTTTTTTTTTTTTTTTTTTTTTTTTTTTT FDIK        TELAPSE      460.76 TCPU      459.40
 INSULATING STATE
 TOP OF VALENCE BANDS -    BAND    120; K    8; EIG -3.4726138E-01 AU
 TOP OF VALENCE BANDS -    BAND    120; K    1; EIG -3.4835049E-01 AU
 BOTTOM OF VIRTUAL BANDS - BAND    121; K    1; EIG -2.7281562E-02 AU
 INDIRECT ENERGY BAND GAP:   8.7071 eV
 TTTTTTTTTTTTTTTTTTTTTTTTTTTTTT PDIG        TELAPSE      460.81 TCPU      459.43
 CHARGE NORMALIZATION FACTOR   1.00000000
 TOTAL ATOMIC CHARGES:
   8.8864522   8.9006274   8.9501304   8.9305097   8.9231785   8.9244885
   8.9309840   8.9024439   8.9294908   8.9164544   8.8937654   8.9341884
   8.9215441   8.9360549   8.9407735   8.9176478   8.9179507   8.8780958
   8.8896429   8.9248264   8.9370642   8.9380460   8.9221695   8.9536117
   0.5688815   0.5365711   0.5515423   0.5629743   0.5437376   0.5433002
   0.5428099   0.5375555   0.5480549   0.5272632   0.5371260   0.5487745
   0.5265629   0.5284508   0.5408657   0.5271552   0.5307734   0.5357517
   0.5516518   0.5347140   0.5438097   0.5412264   0.5303946   0.5211477
   0.5412906   0.5367762   0.5576873   0.5317017   0.5252119   0.5359613
   0.5347428   0.5396510   0.5548534   0.5263223   0.5804836   0.5407790
   0.5642508   0.5222057   0.5438843   0.5451704   0.5298634   0.5293420
   0.5372264   0.5350251   0.5239944   0.5376209   0.5429150   0.5218045
 TTTTTTTTTTTTTTTTTTTTTTTTTTTTTT MOQGAD      TELAPSE      460.82 TCPU      459.44
 TTTTTTTTTTTTTTTTTTTTTTTTTTTTTT SHELLXN     TELAPSE      513.32 TCPU      511.72
 TTTTTTTTTTTTTTTTTTTTTTTTTTTTTT MONMO3      TELAPSE      516.90 TCPU      515.29
 NUMERICALLY INTEGRATED DENSITY    240.0000037532
 TTTTTTTTTTTTTTTTTTTTTTTTTTTTTT NUMDFT      TELAPSE      523.08 TCPU      521.46
 CYC   7 ETOT(AU) -1.831072804111E+03 DETOT -2.06E-06 tst  2.46E-09 PX  2.53E-04
 TTTTTTTTTTTTTTTTTTTTTTTTTTTTTT DIIS        TELAPSE      523.18 TCPU      521.55
 DIIS TEST: 0.72233E-06 AT SCF   CYCLE   7 - DIIS ACTIVE - HISTORY:     7 CYCLES
 TTTTTTTTTTTTTTTTTTTTTTTTTTTTTT FDIK        TELAPSE      523.40 TCPU      521.72
 INSULATING STATE
 TOP OF VALENCE BANDS -    BAND    120; K    8; EIG -3.4725652E-01 AU
 TOP OF VALENCE BANDS -    BAND    120; K    1; EIG -3.4834515E-01 AU
 BOTTOM OF VIRTUAL BANDS - BAND    121; K    1; EIG -2.7286944E-02 AU
 INDIRECT ENERGY BAND GAP:   8.7068 eV
 TTTTTTTTTTTTTTTTTTTTTTTTTTTTTT PDIG        TELAPSE      523.44 TCPU      521.76
 CHARGE NORMALIZATION FACTOR   1.00000000
 TOTAL ATOMIC CHARGES:
   8.8863935   8.9005768   8.9503508   8.9307790   8.9231239   8.9243316
   8.9310207   8.9025124   8.9293581   8.9163726   8.8940526   8.9343635
   8.9215600   8.9359420   8.9407462   8.9176446   8.9178204   8.8780571
   8.8897962   8.9245823   8.9367783   8.9380076   8.9221810   8.9534956
   0.5688952   0.5365849   0.5515609   0.5629837   0.5436832   0.5432450
   0.5427304   0.5374901   0.5480673   0.5273127   0.5371776   0.5488355
   0.5265768   0.5284482   0.5408485   0.5271522   0.5308198   0.5358213
   0.5516566   0.5347420   0.5437120   0.5411230   0.5303595   0.5211212
   0.5412804   0.5367450   0.5577207   0.5317157   0.5252440   0.5359928
   0.5347241   0.5396250   0.5548676   0.5263672   0.5804800   0.5407591
   0.5641870   0.5221588   0.5439544   0.5452504   0.5299591   0.5294331
   0.5372340   0.5350361   0.5240046   0.5376229   0.5429694   0.5218741
 TTTTTTTTTTTTTTTTTTTTTTTTTTTTTT MOQGAD      TELAPSE      523.45 TCPU      521.77
 TTTTTTTTTTTTTTTTTTTTTTTTTTTTTT SHELLXN     TELAPSE      575.98 TCPU      574.08
 TTTTTTTTTTTTTTTTTTTTTTTTTTTTTT MONMO3      TELAPSE      579.65 TCPU      577.71
 NUMERICALLY INTEGRATED DENSITY    240.0000037565
 TTTTTTTTTTTTTTTTTTTTTTTTTTTTTT NUMDFT      TELAPSE      585.77 TCPU      583.81
 CYC   8 ETOT(AU) -1.831072804277E+03 DETOT -1.65E-07 tst  1.05E-09 PX  1.56E-04
 TTTTTTTTTTTTTTTTTTTTTTTTTTTTTT DIIS        TELAPSE      585.88 TCPU      583.92
 DIIS TEST: 0.42465E-06 AT SCF   CYCLE   8 - DIIS ACTIVE - HISTORY:     8 CYCLES
 TTTTTTTTTTTTTTTTTTTTTTTTTTTTTT FDIK        TELAPSE      586.04 TCPU      584.07
 INSULATING STATE
 TOP OF VALENCE BANDS -    BAND    120; K    8; EIG -3.4725459E-01 AU
 TOP OF VALENCE BANDS -    BAND    120; K    1; EIG -3.4834303E-01 AU
 BOTTOM OF VIRTUAL BANDS - BAND    121; K    1; EIG -2.7285829E-02 AU
 INDIRECT ENERGY BAND GAP:   8.7068 eV
 TTTTTTTTTTTTTTTTTTTTTTTTTTTTTT PDIG        TELAPSE      586.09 TCPU      584.11
 CHARGE NORMALIZATION FACTOR   1.00000000
 TOTAL ATOMIC CHARGES:
   8.8864134   8.9005904   8.9502431   8.9306473   8.9231393   8.9244056
   8.9309969   8.9024674   8.9294150   8.9164074   8.8938890   8.9342731
   8.9215559   8.9360080   8.9407544   8.9176471   8.9178923   8.8780708
   8.8897117   8.9246917   8.9369173   8.9380064   8.9221781   8.9535516
   0.5688952   0.5365802   0.5515573   0.5629821   0.5437079   0.5432719
   0.5427724   0.5375179   0.5480680   0.5272907   0.5371534   0.5488095
   0.5265706   0.5284513   0.5408630   0.5271561   0.5307995   0.5357919
   0.5516599   0.5347315   0.5437697   0.5411829   0.5303756   0.5211339
   0.5412870   0.5367594   0.5577027   0.5317089   0.5252309   0.5359786
   0.5347343   0.5396386   0.5548632   0.5263419   0.5804886   0.5407677
   0.5642246   0.5221847   0.5439234   0.5452170   0.5299161   0.5293876
   0.5372368   0.5350367   0.5239995   0.5376220   0.5429443   0.5218398
 TTTTTTTTTTTTTTTTTTTTTTTTTTTTTT MOQGAD      TELAPSE      586.10 TCPU      584.12
 TTTTTTTTTTTTTTTTTTTTTTTTTTTTTT SHELLXN     TELAPSE      638.61 TCPU      636.43
 +++ ENERGIES IN A.U. +++
 ::: EXT EL-POLE                                  -1.8725635504461E+03
 ::: EXT EL-SPHEROPOLE                             2.2440963347616E+01
 ::: BIELET ZONE E-E                               2.3585110059588E+03
 ::: TOTAL E-E                                     5.0838841886026E+02
 ::: TOTAL E-N + N-E                              -3.6722241027839E+03
 ::: TOTAL N-N                                    -3.4948211247129E+02
 ::: KINETIC ENERGY                                1.8195429831403E+03
 ::: PSEUDO TOTAL   ENERGY                        -1.6937748132546E+03
 ::: VIRIAL COEFFICIENT                            1.0357975501148E+00
 TTTTTTTTTTTTTTTTTTTTTTTTTTTTTT MONMO3      TELAPSE      642.23 TCPU      640.04
 NUMERICALLY INTEGRATED DENSITY    240.0000037547
 TTTTTTTTTTTTTTTTTTTTTTTTTTTTTT NUMDFT      TELAPSE      648.35 TCPU      646.15
 CYC   9 ETOT(AU) -1.831072804325E+03 DETOT -4.86E-08 tst  2.43E-10 PX  1.56E-04

 == SCF ENDED - CONVERGENCE ON ENERGY      E(AU) -1.8310728043254E+03 CYCLES   9


 ENERGY EXPRESSION=HARTREE+FOCK EXCH*0.00000+(HSE-3c     EXCH)*1.00000+PBEh-3c    CORR


 TOTAL ENERGY(DFT)(AU)(  9) -1.8310728043254E+03 DE-4.9E-08 tester 2.4E-10
 TTTTTTTTTTTTTTTTTTTTTTTTTTTTTT EDFT        TELAPSE      648.35 TCPU      646.15
 
 INFORMATION **** DFTD3 ENERGY **** CALCULATE DFTD3 ENERGY

           DFT-D V3(BJ)
 DF                                         hse3c     
 parameters
 s6       :    1.0000
 s8       :    0.0000
 a1       :    0.4411
 a2       :    4.5182
 k1 k3    :   16.0000   -4.0000
 Cutoff   :   50.2022
 CN-Cutoff:   21.1671
 
 Edisp /kcal,au:   -44.7667 -0.07134020

 E6    /kcal :   -48.0046
 E8    /kcal :     0.0000
 E6(ABC) "   :   3.237904
 
 INFORMATION **** DFTD3 ENERGY **** NORMAL TERMINATION OF DFTD3 MODULE

 GCP ENERGY CALCULATION
  level           hse3c               basis:hse3c
  Nbf            456
  Atoms           72

  Parameters: 
  sigma     1.0000
  eta       1.4086
  alpha     0.2908
  beta      1.9526

  dmp_scal      4.0000
  dmp_exp       6.0000
 cutoffs: 
   distance [bohr] 60.0
   noise    [a.u.] 2.2E-16
 SR-damping   T
 ** gCP correction **
  Egcp:        0.2969867831 / (a.u.) ||     186.3620 / (kcal/mol)
 INFORMATION **** GCP **** NORMAL TERMINATION OF GCP MODULE

 *******************************************************************************

 DFT-D3-GCP DISPERSION AND COUNTERPOISE CORRECTION

 D3 DISPERSION ENERGY (AU)      -7.1340195575350E-02
 GCP ENERGY (AU)                 2.9698678313112E-01
 TOTAL ENERGY + DISP + GCP (AU) -1.8308471577378E+03

 *******************************************************************************

 EIGENVECTORS IN FORTRAN UNIT 10
 TTTTTTTTTTTTTTTTTTTTTTTTTTTTTT END         TELAPSE      652.07 TCPU      648.62
 EEEEEEEEEE TERMINATION  DATE 25 03 2019 TIME 18:03:32.4
NODE    0 CPU TIME =       648.616
NODE    1 CPU TIME =       648.803
NODE    2 CPU TIME =       648.095
NODE    3 CPU TIME =       643.632
NODE    4 CPU TIME =       648.667
NODE    5 CPU TIME =       648.688
NODE    6 CPU TIME =       649.007
NODE    7 CPU TIME =       648.733
    TOTAL CPU TIME =      5184.241
