 PROCESS            2  OF            8  WORKING
 PROCESS            4  OF            8  WORKING
 PROCESS            5  OF            8  WORKING
 PROCESS            7  OF            8  WORKING
 PROCESS            0  OF            8  WORKING
 PROCESS            6  OF            8  WORKING

         
 *******************************************************************************
 *                                                                             *
 *                               CRYSTAL17                                     *
 *                      public : 1.0.1 - Feb 1st, 2017                         *
 *                       HTTP://WWW.CRYSTAL.UNITO.IT                           *
 *                                                                             *
 *                              MAIN AUTHORS                                   *
 *                                                                             *
 *  R. DOVESI(1,11), V.R. SAUNDERS(2), C. ROETTI(1,11), R. ORLANDO(1,11),      *
 *  C.M. ZICOVICH-WILSON(1,3), F. PASCALE(4), B. CIVALLERI(1,11),              *
 *  K. DOLL(5), N.M. HARRISON(2,6), I.J. BUSH(7), Ph. D'ARCO(8),               *
 *  M. LLUNELL(9), M. CAUSA'(10), Y. NOEL(8), L. MASCHIO(1,11), A. ERBA(1,11)  *
 *  M. RE'RAT(14), S. CASASSA(1,11)                                            *
 *                                                                             *
 PROCESS            1  OF            8  WORKING
 *        CONTRIBUTIONS TO THE CODE HAVE ALSO BEEN GIVEN BY                    *
 *                                                                             *
 *  M. FERRABONE(1,11), M. DE LA PIERRE(1,11), M. FERRERO(1,11),               *
 *  J. BAIMA(1,11), E. ALBANESE(1,11), M.F. PEINTINGER(12), R. BAST(13),       *
 *  B. KIRTMAN(15), V. LACIVITA(1,11), R. DEMICHELIS(1,16)                     *
 *  G. BRANDEBURG(17), S. SALUSTRO(1,11), G. SANSONE(1,11)                     *
 *  M.T. RUGGIERO(18)                                                          *
 *                                                                             *
 * (1) THEORETICAL CHEMISTRY GROUP - UNIVERSITA' DI TORINO - TORINO (ITALY)    *

 * (2) COMPUTATIONAL SCIENCE & ENGINEERING DEPARTMENT - STFC DARESBURY (UK)    *
 * (3) UNIVERSIDAD AUTONOMA DEL ESTADO DE MORELOS - CUERNAVACA (MEXICO)        *
 * (4) UNIVERSITE' DE LORRAINE - NANCY (FRANCE)                                *
 * (5) UNIVERSITAET STUTTGART- STUTTGART (GERMANY)                             *
 * (6) IMPERIAL COLLEGE - LONDON (UK)                                          *
 * (7) OXFORD E-RESEARCH CENTRE - OXFORD (UK)                                  *
 * (8) UPMC - SORBONNE UNIVERSITES - PARIS (FRANCE)                            *
 * (9) UNIVERSIDAD DE BARCELONA - BARCELONA (SPAIN)                            *
 *(10) UNIVERSITA' DI NAPOLI "FEDERICO II" - NAPOLI (ITALY)                    *
 *(11) NIS - NANOSTRUCTURED INTERFACES AND SURFACES - TORINO (ITALY)           *
 *(12) MPI FUER CHEMISCHE ENERGIEKONVERSION - MUELHEIM AN DER RUHR (GERMANY)   *
 *(13) UNIVERSITY OF TROMSO - TROMSO (NORWAY)                                  *
 *(14) UNIVERSITE' DE PAU ET DES PAYS DE L'ADOUR - PAU (FRANCE)                *
 *(15) UNIVERSITY OF CALIFORNIA SANTA BARBARA - SANTA BARBARA (USA)            *
 *(16) CURTIN UNIVERSITY - PERTH (AUSTRALIA)                                   *
 *(17) UNIVERSITY COLLEGE LONDON - LONDON (UK)                                 *
 *(18) CAMBRIDGE UNIVERSITY - CAMBRIDGE (UK)                                   *
 *                                                                             *
 *******************************************************************************
 PROCESS            3  OF            8  WORKING
 EEEEEEEEEE STARTING  DATE 25 03 2019 TIME 17:49:57.8
 !drive by JGB                                                                   

 CRYSTAL CALCULATION
 (INPUT ACCORDING TO THE INTERNATIONAL TABLES FOR X-RAY CRYSTALLOGRAPHY)
 CRYSTAL FAMILY                       :  TRICLINIC   
 CRYSTAL CLASS  (GROTH - 1921)        :  TRICLINIC PEDIAL                     

 SPACE GROUP (NONCENTROSYMMETRIC)     :  P 1             

 LATTICE PARAMETERS  (ANGSTROMS AND DEGREES) - CONVENTIONAL CELL
        A           B           C        ALPHA        BETA       GAMMA
     6.07099     2.90884    24.91957    71.92189    75.39809    72.87098


 NUMBER OF IRREDUCIBLE ATOMS IN THE CONVENTIONAL CELL:   48

 INPUT COORDINATES

 ATOM AT. N.              COORDINATES
   1   8     5.506390717614E-01  5.457398297321E-01  4.394365629150E-01
   2   8     3.855617241148E-01  7.036524500977E-01  9.388409240097E-01
   3   8     5.927705780566E-01  8.072920339750E-01  7.981338164905E-01
   4   8     4.404130012809E-01  9.765892463887E-01  5.747808293775E-01
   5   8     2.101145962160E-01  5.066228797181E-01  2.990423002937E-01
   6   8     7.133198535828E-01  5.540693589294E-01  7.954162333813E-02
   7   8     7.836574887445E-01  1.960015012811E-03  6.855855092480E-01
   8   8     1.866120845069E-01  8.645078576565E-01  1.859432663517E-01
   9   8     1.546886907897E-02  5.405582611451E-01  8.333333333333E-01
  10   8     7.391689856598E-01  7.345946353153E-01  3.271103639233E-01
  11   8     8.780550449851E-02  8.944308162448E-01  4.415245355236E-01
  12   8     7.186046712543E-01  1.708231598566E-01  1.930202021514E-01
  13   8     8.417697249796E-01  4.399095134345E-01  9.457584113494E-01
  14   8     2.447905533030E-01  8.110675734934E-01  6.871493268101E-01
  15   8     1.910967796902E-01  4.355740537876E-01  5.038457184825E-02
  16   8     9.122218902417E-01  6.990847264054E-01  5.547038155898E-01
  17   1     3.800002161507E-01  6.576836725510E-01  4.403003172141E-01
  18   1     5.847470828453E-01  1.861570521914E-01  4.517808838224E-01
  19   1     3.033553764188E-01  6.208365912738E-01  9.788746342243E-01
  20   1     3.665487626684E-01  4.638245951307E-01  9.218477963501E-01
  21   1     5.141295071079E-01  1.259451691338E-01  8.062307804949E-01
  22   1     7.413774310493E-01  7.096679240720E-01  8.123522856737E-01
  23   1     4.094485114325E-01  3.350145666947E-01  5.607425670016E-01
  24   1     3.744769919790E-01  9.115169934685E-01  6.161106649564E-01
  25   1     2.675407973292E-01  1.491933095983E-01  3.064986218451E-01
  26   1     3.954839140578E-02  5.652517027641E-01  3.128686375234E-01
  27   1     6.974168081868E-01  4.268599622703E-01  1.215328060178E-01
  28   1     6.778473618296E-01  3.056686855876E-01  6.687120551705E-02
  29   1     7.010289515613E-01  9.337468700250E-01  7.256469707040E-01
  30   1     7.659923782140E-01  7.522253401116E-01  6.698961243003E-01
  31   1     2.120189934722E-01  7.388845937506E-01  2.259734118799E-01
  32   1     2.366986806602E-01  1.734608365717E-01  1.707756803288E-01
  33   1     7.662181756092E-02  8.355091484316E-01  8.208758087738E-01
  34   1     9.695441828313E-01  4.837361912766E-01  8.751380870492E-01
  35   1     7.017526528954E-01  9.288362417553E-02  3.129737891780E-01
  36   1     6.747699356117E-01  6.688490491121E-01  3.685248823856E-01
  37   1     6.354743097532E-02  2.514667411547E-01  4.266796544971E-01
  38   1     1.604164089110E-02  8.406186704643E-01  4.824881253491E-01
  39   1     8.895184232272E-01  5.111496685915E-02  1.912336571972E-01
  40   1     6.603465810332E-01  8.718747185202E-01  2.063328966636E-01
  41   1     6.728351818824E-01  5.490918615911E-01  9.441952801499E-01
  42   1     8.770012611012E-01  6.921957761134E-01  9.577927657014E-01
  43   1     7.491080458054E-02  8.988972124112E-01  6.874519892362E-01
  44   1     2.757967903816E-01  6.316994009935E-02  7.000793205621E-01
  45   1     2.483065711004E-01  7.866002201601E-02  6.212610566241E-02
  46   1     1.964745852258E-02  4.910157414786E-01  5.899095675967E-02
  47   1     7.395200325606E-01  7.836170237493E-01  5.626237258196E-01
  48   1     9.585376155637E-01  3.397950361596E-01  5.662125474287E-01

 *******************************************************************************

 << INFORMATION >>: FROM NOW ON, ALL COORDINATES REFER TO THE PRIMITIVE CELL

 *******************************************************************************

 LATTICE PARAMETERS  (ANGSTROMS AND DEGREES) - PRIMITIVE CELL
       A          B          C        ALPHA      BETA     GAMMA        VOLUME
    6.07099    2.90884   24.91957    71.92189  75.39809  72.87098    393.482138

 COORDINATES OF THE EQUIVALENT ATOMS (FRACTIONAL UNITS)

 N. ATOM EQUIV AT. N.          X                  Y                  Z

   1   1   1    8 O    -4.49360928239E-01 -4.54260170268E-01  4.39436562915E-01

   2   2   1    8 O     3.85561724115E-01 -2.96347549902E-01 -6.11590759903E-02

   3   3   1    8 O    -4.07229421943E-01 -1.92707966025E-01 -2.01866183510E-01

   4   4   1    8 O     4.40413001281E-01 -2.34107536113E-02 -4.25219170623E-01

   5   5   1    8 O     2.10114596216E-01 -4.93377120282E-01  2.99042300294E-01

   6   6   1    8 O    -2.86680146417E-01 -4.45930641071E-01  7.95416233381E-02

   7   7   1    8 O    -2.16342511255E-01  1.96001501281E-03 -3.14414490752E-01

   8   8   1    8 O     1.86612084507E-01 -1.35492142344E-01  1.85943266352E-01

   9   9   1    8 O     1.54688690790E-02 -4.59441738855E-01 -1.66666666667E-01

  10  10   1    8 O    -2.60831014340E-01 -2.65405364685E-01  3.27110363923E-01

  11  11   1    8 O     8.78055044985E-02 -1.05569183755E-01  4.41524535524E-01

  12  12   1    8 O    -2.81395328746E-01  1.70823159857E-01  1.93020202151E-01

  13  13   1    8 O    -1.58230275020E-01  4.39909513435E-01 -5.42415886506E-02

  14  14   1    8 O     2.44790553303E-01 -1.88932426507E-01 -3.12850673190E-01

  15  15   1    8 O     1.91096779690E-01  4.35574053788E-01  5.03845718483E-02

  16  16   1    8 O    -8.77781097583E-02 -3.00915273595E-01 -4.45296184410E-01

  17  17   1    1 H     3.80000216151E-01 -3.42316327449E-01  4.40300317214E-01

  18  18   1    1 H    -4.15252917155E-01  1.86157052191E-01  4.51780883822E-01

  19  19   1    1 H     3.03355376419E-01 -3.79163408726E-01 -2.11253657757E-02

  20  20   1    1 H     3.66548762668E-01  4.63824595131E-01 -7.81522036499E-02

  21  21   1    1 H    -4.85870492892E-01  1.25945169134E-01 -1.93769219505E-01

  22  22   1    1 H    -2.58622568951E-01 -2.90332075928E-01 -1.87647714326E-01

  23  23   1    1 H     4.09448511432E-01  3.35014566695E-01 -4.39257432998E-01

  24  24   1    1 H     3.74476991979E-01 -8.84830065315E-02 -3.83889335044E-01

  25  25   1    1 H     2.67540797329E-01  1.49193309598E-01  3.06498621845E-01

  26  26   1    1 H     3.95483914058E-02 -4.34748297236E-01  3.12868637523E-01

  27  27   1    1 H    -3.02583191813E-01  4.26859962270E-01  1.21532806018E-01

  28  28   1    1 H    -3.22152638170E-01  3.05668685588E-01  6.68712055171E-02

  29  29   1    1 H    -2.98971048439E-01 -6.62531299750E-02 -2.74353029296E-01

  30  30   1    1 H    -2.34007621786E-01 -2.47774659888E-01 -3.30103875700E-01

  31  31   1    1 H     2.12018993472E-01 -2.61115406249E-01  2.25973411880E-01

  32  32   1    1 H     2.36698680660E-01  1.73460836572E-01  1.70775680329E-01

  33  33   1    1 H     7.66218175609E-02 -1.64490851568E-01 -1.79124191226E-01

  34  34   1    1 H    -3.04558171687E-02  4.83736191277E-01 -1.24861912951E-01

  35  35   1    1 H    -2.98247347105E-01  9.28836241755E-02  3.12973789178E-01

  36  36   1    1 H    -3.25230064388E-01 -3.31150950888E-01  3.68524882386E-01

  37  37   1    1 H     6.35474309753E-02  2.51466741155E-01  4.26679654497E-01

  38  38   1    1 H     1.60416408911E-02 -1.59381329536E-01  4.82488125349E-01

  39  39   1    1 H    -1.10481576773E-01  5.11149668591E-02  1.91233657197E-01

  40  40   1    1 H    -3.39653418967E-01 -1.28125281480E-01  2.06332896664E-01

  41  41   1    1 H    -3.27164818118E-01 -4.50908138409E-01 -5.58047198501E-02

  42  42   1    1 H    -1.22998738899E-01 -3.07804223887E-01 -4.22072342986E-02

  43  43   1    1 H     7.49108045805E-02 -1.01102787589E-01 -3.12548010764E-01

  44  44   1    1 H     2.75796790382E-01  6.31699400993E-02 -2.99920679438E-01

  45  45   1    1 H     2.48306571100E-01  7.86600220160E-02  6.21261056624E-02

  46  46   1    1 H     1.96474585226E-02  4.91015741479E-01  5.89909567597E-02

  47  47   1    1 H    -2.60479967439E-01 -2.16382976251E-01 -4.37376274180E-01

  48  48   1    1 H    -4.14623844363E-02  3.39795036160E-01 -4.33787452571E-01

 NUMBER OF SYMMETRY OPERATORS         :    1
 *******************************************************************************
 * GEOMETRY EDITING - INPUT COORDINATES ARE GIVEN IN ANGSTROM         
 *******************************************************************************

 GCALCO - MAX INDICES DIRECT LATTICE VECTOR    18    40     4
 NO.OF VECTORS CREATED 6999 STARS 3500 RMAX   163.99138 BOHR

 GEOMETRY FOR WAVE FUNCTION - DIMENSIONALITY OF THE SYSTEM    3
 (NON PERIODIC DIRECTION: LATTICE PARAMETER FORMALLY SET TO 500)
 *******************************************************************************
 LATTICE PARAMETERS (ANGSTROMS AND DEGREES) - BOHR = 0.5291772083 ANGSTROM
 PRIMITIVE CELL - CENTRING CODE 1/0 VOLUME=   393.482138 - DENSITY  1.216 g/cm^3
         A              B              C           ALPHA      BETA       GAMMA 
     6.07098829     2.90883645    24.91956831    71.921890  75.398089  72.870979
 *******************************************************************************
 ATOMS IN THE ASYMMETRIC UNIT   48 - ATOMS IN THE UNIT CELL:   48
     ATOM                 X/A                 Y/B                 Z/C    
 *******************************************************************************
      1 T   8 O    -4.493609282386E-01 -4.542601702679E-01  4.394365629150E-01
      2 T   8 O     3.855617241148E-01 -2.963475499023E-01 -6.115907599031E-02
      3 T   8 O    -4.072294219434E-01 -1.927079660250E-01 -2.018661835095E-01
      4 T   8 O     4.404130012809E-01 -2.341075361131E-02 -4.252191706225E-01
      5 T   8 O     2.101145962160E-01 -4.933771202819E-01  2.990423002937E-01
      6 T   8 O    -2.866801464172E-01 -4.459306410706E-01  7.954162333813E-02
      7 T   8 O    -2.163425112555E-01  1.960015012811E-03 -3.144144907520E-01
      8 T   8 O     1.866120845069E-01 -1.354921423435E-01  1.859432663517E-01
      9 T   8 O     1.546886907897E-02 -4.594417388549E-01 -1.666666666667E-01
     10 T   8 O    -2.608310143402E-01 -2.654053646847E-01  3.271103639233E-01
     11 T   8 O     8.780550449851E-02 -1.055691837552E-01  4.415245355236E-01
     12 T   8 O    -2.813953287457E-01  1.708231598566E-01  1.930202021514E-01
     13 T   8 O    -1.582302750204E-01  4.399095134345E-01 -5.424158865056E-02
     14 T   8 O     2.447905533030E-01 -1.889324265066E-01 -3.128506731899E-01
     15 T   8 O     1.910967796902E-01  4.355740537876E-01  5.038457184825E-02
     16 T   8 O    -8.777810975835E-02 -3.009152735946E-01 -4.452961844102E-01
     17 T   1 H     3.800002161507E-01 -3.423163274490E-01  4.403003172141E-01
     18 T   1 H    -4.152529171547E-01  1.861570521914E-01  4.517808838224E-01
     19 T   1 H     3.033553764188E-01 -3.791634087262E-01 -2.112536577571E-02
     20 T   1 H     3.665487626684E-01  4.638245951307E-01 -7.815220364994E-02
     21 T   1 H    -4.858704928921E-01  1.259451691338E-01 -1.937692195051E-01
     22 T   1 H    -2.586225689507E-01 -2.903320759280E-01 -1.876477143263E-01
     23 T   1 H     4.094485114325E-01  3.350145666947E-01 -4.392574329984E-01
     24 T   1 H     3.744769919790E-01 -8.848300653153E-02 -3.838893350436E-01
     25 T   1 H     2.675407973292E-01  1.491933095983E-01  3.064986218451E-01
     26 T   1 H     3.954839140578E-02 -4.347482972359E-01  3.128686375234E-01
     27 T   1 H    -3.025831918132E-01  4.268599622703E-01  1.215328060178E-01
     28 T   1 H    -3.221526381704E-01  3.056686855876E-01  6.687120551705E-02
     29 T   1 H    -2.989710484387E-01 -6.625312997503E-02 -2.743530292960E-01
     30 T   1 H    -2.340076217860E-01 -2.477746598884E-01 -3.301038756997E-01
     31 T   1 H     2.120189934722E-01 -2.611154062494E-01  2.259734118799E-01
     32 T   1 H     2.366986806602E-01  1.734608365717E-01  1.707756803288E-01
     33 T   1 H     7.662181756092E-02 -1.644908515684E-01 -1.791241912262E-01
     34 T   1 H    -3.045581716874E-02  4.837361912766E-01 -1.248619129508E-01
     35 T   1 H    -2.982473471046E-01  9.288362417553E-02  3.129737891780E-01
     36 T   1 H    -3.252300643883E-01 -3.311509508879E-01  3.685248823856E-01
     37 T   1 H     6.354743097532E-02  2.514667411547E-01  4.266796544971E-01
     38 T   1 H     1.604164089110E-02 -1.593813295357E-01  4.824881253491E-01
     39 T   1 H    -1.104815767728E-01  5.111496685915E-02  1.912336571972E-01
     40 T   1 H    -3.396534189668E-01 -1.281252814798E-01  2.063328966636E-01
     41 T   1 H    -3.271648181176E-01 -4.509081384089E-01 -5.580471985013E-02
     42 T   1 H    -1.229987388988E-01 -3.078042238866E-01 -4.220723429860E-02
     43 T   1 H     7.491080458054E-02 -1.011027875888E-01 -3.125480107638E-01
     44 T   1 H     2.757967903816E-01  6.316994009935E-02 -2.999206794379E-01
     45 T   1 H     2.483065711004E-01  7.866002201601E-02  6.212610566241E-02
     46 T   1 H     1.964745852258E-02  4.910157414786E-01  5.899095675967E-02
     47 T   1 H    -2.604799674394E-01 -2.163829762507E-01 -4.373762741804E-01
     48 T   1 H    -4.146238443629E-02  3.397950361596E-01 -4.337874525713E-01

 T = ATOM BELONGING TO THE ASYMMETRIC UNIT

 ****    1 SYMMOPS - TRANSLATORS IN FRACTIONAL UNITS
 **** MATRICES AND TRANSLATORS IN THE CRYSTALLOGRAPHIC REFERENCE FRAME
   V INV                    ROTATION MATRICES                   TRANSLATORS
   1   1  1.00  0.00  0.00  0.00  1.00  0.00  0.00  0.00  1.00  0.00  0.00  0.00

 DIRECT LATTICE VECTORS CARTESIAN COMPONENTS (ANGSTROM)
          X                    Y                    Z
   0.580170327384E+01   0.178805423286E+01   0.000000000000E+00
   0.000000000000E+00   0.290883645000E+01   0.000000000000E+00
   0.419062369146E+01   0.773287247968E+01   0.233157938112E+02


 CARTESIAN COORDINATES - PRIMITIVE CELL
 *******************************************************************************
 *      ATOM          X(ANGSTROM)         Y(ANGSTROM)         Z(ANGSTROM)
 *******************************************************************************
    1     8 O    -7.655454970529E-01  1.273256653057E+00  1.024581229403E+01
    2     8 O     1.980620044271E+00 -6.455566178018E-01 -1.425972405473E+00
    3     8 O     2.593133792228E+00 -1.061655469612E+00 -4.706670312161E+00
    4     8 O     7.732120209001E-01  3.400551053776E-01 -9.914322506803E+00
    5     8 O     2.472196289107E+00  1.252998916279E+00  6.972408614474E+00
    6     8 O    -1.329904132796E+00 -1.194653722094E+00  1.854576089160E+00
    7     8 O    -2.572747869705E+00  9.637850736481E-02 -7.330823437626E+00
    8     8 O     1.861886198862E+00  1.377423612421E+00  4.335414858837E+00
    9     8 O    -6.086914935317E-01  3.112426702543E-01 -3.885965635200E+00
   10     8 O    -1.424677090379E-01  1.291101932931E+00  7.626837798742E+00
   11     8 O     2.359684661836E+00  3.553339941384E-01  1.029449503285E+01
   12     8 O    -8.236971679614E-01 -1.422489315535E+00  4.500419234758E+00
   13     8 O    -1.145311191068E+00  5.772572262337E-01 -1.264685696968E+00
   14     8 O     1.091627115448E-01  3.777273452263E-01 -7.294361789790E+00
   15     8 O     1.319829592820E+00 -9.105138908122E-01  1.174756288479E+00
   16     8 O    -2.375331286862E+00 -1.566847496633E+00 -1.038243402062E+01
   17     1 H    -1.751921835064E+00  1.300450757186E+00  1.026595141117E+01
   18     1 H    -5.159305338338E-01  3.837331959724E-01  1.053362993504E+01
   19     1 H     1.671449422195E+00 -7.238682385741E-01 -4.925546726126E-01
   20     1 H     1.799100680240E+00  1.400257930529E+00 -1.822180666193E+00
   21     1 H     2.170812962632E+00 -2.127473248228E-01 -4.517883168938E+00
   22     1 H    -2.286812362274E+00  1.508208998227E-01 -4.375155416375E+00
   23     1 H     5.347361638745E-01  1.218733461756E+00 -1.024163573783E+01
   24     1 H     5.638686480103E-01  3.524717518077E-01 -8.950684582194E+00
   25     1 H     2.836612705854E+00  3.736347001087E-01  7.146258670357E+00
   26     1 H     1.540562756614E+00  1.225476251941E+00  7.294780642486E+00
   27     1 H    -1.246199638364E+00 -1.268408098581E+00  2.833633846407E+00
   28     1 H    -1.588801957433E+00  8.302203307807E-01  1.559155239742E+00
   29     1 H    -2.884251614901E+00  6.000349197898E-02 -6.396758662543E+00
   30     1 H    -2.740983907569E+00 -7.829690065599E-01 -7.696633902091E+00
   31     1 H     2.177040822008E+00  1.366983025235E+00  5.268749478205E+00
   32     1 H     2.088912122411E+00 -6.604506094531E-01  3.981770550513E+00
   33     1 H    -3.061050296751E-01  1.182218901706E+00 -4.176422709228E+00
   34     1 H    -6.999449047478E-01  3.871115621480E-01 -2.911254617233E+00
   35     1 H    -4.187872343760E-01 -7.517492086215E-01  7.297232336784E+00
   36     1 H    -3.425392262957E-01  1.304962971402E+00  8.592450171999E+00
   37     1 H     2.156737207132E+00  1.235724783478E+00  9.948374847687E+00
   38     1 H     2.114995009411E+00  3.872517993808E-01  1.124959364699E+01
   39     1 H     1.604069687931E-01  1.429923512669E+00  4.458764520971E+00
   40     1 H    -1.105904827705E+00  6.155317558410E-01  4.810815275076E+00
   41     1 H    -2.131969777457E+00  5.806992011524E-01 -1.301131341717E+00
   42     1 H    -8.904768221500E-01 -1.441663722180E+00 -9.840951722471E-01
   43     1 H    -8.751608384441E-01  3.317956464666E-01 -7.287304975069E+00
   44     1 H     3.432364368607E-01  1.266478724642E+00 -6.992888721488E+00
   45     1 H     1.700948176716E+00  1.153208007447E+00  1.448519469917E+00
   46     1 H     3.611976254120E-01 -9.892516962100E-01  1.375420984534E+00
   47     1 H     2.457596417315E+00  2.195407321476E-01 -1.019777502670E+01
   48     1 H    -2.058392427328E+00  4.686845906937E-01 -1.011409880204E+01

 *******************************************************************************
 STARTING BASIS SET HANDLING 
 *******************************************************************************

 Loading internal basis set: DEF2-MSVP           

 Please cite in your publication:
 Fully Optimized Contracted Gaussian Basis Sets for Atoms Li to Kr. A. Schäfer, 
 H. Horn and R. Ahlrichs; J. Chem. Phys. 97, 2571 (1992).                       
                                                                                
                    
 S. Grimme, J. G. Brandenburg, C. Bannwarth, and A. Hansen, J. Chem. Phys., 143,
  054107 (2015).                                                                
                                                                                
                    

 *******************************************************************************
 LOCAL ATOMIC FUNCTIONS BASIS SET
 *******************************************************************************
   ATOM   X(AU)   Y(AU)   Z(AU)  N. TYPE  EXPONENT  S COEF   P COEF   D/F/G COEF
 *******************************************************************************
   1 O   -1.447   2.406  19.362
                                  1 S  
                                         6.773E+03 1.727E-03 0.000E+00 0.000E+00
                                         1.017E+03 1.325E-02 0.000E+00 0.000E+00
                                         2.313E+02 6.603E-02 0.000E+00 0.000E+00
                                         6.501E+01 2.353E-01 0.000E+00 0.000E+00
                                         2.050E+01 5.498E-01 0.000E+00 0.000E+00
                                  2 S  
                                         6.716E+00 1.000E+00 0.000E+00 0.000E+00
                                  3 S  
                                         1.147E+00 1.000E+00 0.000E+00 0.000E+00
                                  4 S  
                                         3.342E-01 1.000E+00 0.000E+00 0.000E+00
                           5-     7 P  
                                         1.769E+01 0.000E+00 4.359E-02 0.000E+00
                                         3.854E+00 0.000E+00 2.318E-01 0.000E+00
                                         1.047E+00 0.000E+00 5.146E-01 0.000E+00
                           8-    10 P  
                                         2.759E-01 0.000E+00 1.000E+00 0.000E+00
                          11-    15 D  
                                         8.000E-01 0.000E+00 0.000E+00 1.000E+00
   2 O    3.743  -1.220  -2.695
   3 O    4.900  -2.006  -8.894
   4 O    1.461   0.643 -18.735
   5 O    4.672   2.368  13.176
   6 O   -2.513  -2.258   3.505
   7 O   -4.862   0.182 -13.853
   8 O    3.518   2.603   8.193
   9 O   -1.150   0.588  -7.343
  10 O   -0.269   2.440  14.413
  11 O    4.459   0.671  19.454
  12 O   -1.557  -2.688   8.505
  13 O   -2.164   1.091  -2.390
  14 O    0.206   0.714 -13.784
  15 O    2.494  -1.721   2.220
  16 O   -4.489  -2.961 -19.620
  17 H   -3.311   2.457  19.400
                                241 S  
                                         1.874E+01 1.968E-02 0.000E+00 0.000E+00
                                         2.826E+00 1.380E-01 0.000E+00 0.000E+00
                                         6.401E-01 4.783E-01 0.000E+00 0.000E+00
                                242 S  
                                         1.756E-01 1.000E+00 0.000E+00 0.000E+00
  18 H   -0.975   0.725  19.906
  19 H    3.159  -1.368  -0.931
  20 H    3.400   2.646  -3.443
  21 H    4.102  -0.402  -8.538
  22 H   -4.321   0.285  -8.268
  23 H    1.011   2.303 -19.354
  24 H    1.066   0.666 -16.914
  25 H    5.360   0.706  13.504
  26 H    2.911   2.316  13.785
  27 H   -2.355  -2.397   5.355
  28 H   -3.002   1.569   2.946
  29 H   -5.450   0.113 -12.088
  30 H   -5.180  -1.480 -14.545
  31 H    4.114   2.583   9.956
  32 H    3.947  -1.248   7.524
  33 H   -0.578   2.234  -7.892
  34 H   -1.323   0.732  -5.501
  35 H   -0.791  -1.421  13.790
  36 H   -0.647   2.466  16.237
  37 H    4.076   2.335  18.800
  38 H    3.997   0.732  21.259
  39 H    0.303   2.702   8.426
  40 H   -2.090   1.163   9.091
  41 H   -4.029   1.097  -2.459
  42 H   -1.683  -2.724  -1.860
  43 H   -1.654   0.627 -13.771
  44 H    0.649   2.393 -13.215
  45 H    3.214   2.179   2.737
  46 H    0.683  -1.869   2.599
  47 H    4.644   0.415 -19.271
  48 H   -3.890   0.886 -19.113

 *******************************************************************************
 FINISHED BASIS SET HANDLING 
 *******************************************************************************

 INFORMATION **** SET_MPP **** PCRYSTAL CALCULATION
 INFORMATION **** READM2 **** NEW DEFAULT: FOCK/KS MATRIX MIXING SET TO 30 %
 INFORMATION **** READM2 **** NEW DEFAULT: FULL DIRECT SCF MODE
 INFORMATION **** READM2 **** NEW DEFAULT: COULOMB BIPOLAR BUFFER SET TO 32 Mb
 INFORMATION **** READM2 **** NEW DEFAULT: EXCHANGE BIPOLAR BUFFER SET TO 32 Mb

 *******************************************************************************
 NEW DEFAULT: DFT INTEGRATION GRID INCREASED TO XLGRID
 NEW DEFAULT: DIIS ACCELERATOR ACTIVE
 USE KEYWORD NODIIS TO TURN IT OFF
 *******************************************************************************

 INFORMATION **** RDDFTP **** HSE-3c calculation
 INFORMATION **** RDDFTP **** HSE screened hybrid functional combined with D3 and gCP

PLEASE CITE:
(1) HSE-3c Reference
 J. G. Brandenburg, E. Caldeweyer, and S. Grimme, 
 Phys. Chem. Chem. Phys. 18, 15519 (2016)
(2) DFT-D3 Reference
 S. Grimme, J. Antony, S. Ehrlich,
 and H. Krieg, J. Chem. Phys. 132, 154104 (2010)
(3) gCP Reference
 H. Kruse and S. Grimme J. Chem. Phys, 136, 154101 (2012)
 J. G. Brandenburg, M. Alessio, B. Civalleri, M. F. Peintinger
 T. Bredow, and S. Grimme, J. Phys. Chem. A, 117, 9282 (2013) 

 WARNING **** RDDFTP **** HSE3c-HJS ACTIVE
 RANGE SEPARATION - OMEGA:   0.110000000000000     
 WARNING **** RDDFTP **** HSE-3c has to be combined with def2-mSVP basis set
 WARNING **** RDDFTP **** Note: Harmonic frequencies are scaled by 0.95
 WARNING **** RDDFTP **** as recommended in original publication
 INFORMATION **** BIPOSIZE **** COULOMB BIPOLAR BUFFER SET TO    60000000
 INFORMATION **** EXCHSIZE **** EXCHANGE BIPOLAR BUFFER SIZE SET TO    40000000
 *******************************************************************************
 N. OF ATOMS PER CELL        48  COULOMB OVERLAP TOL         (T1) 10**   -6
 NUMBER OF SHELLS           176  COULOMB PENETRATION TOL     (T2) 10**   -6
 NUMBER OF AO               304  EXCHANGE OVERLAP TOL        (T3) 10**   -6
 N. OF ELECTRONS PER CELL   160  EXCHANGE PSEUDO OVP (F(G))  (T4) 10**   -6
 CORE ELECTRONS PER CELL     32  EXCHANGE PSEUDO OVP (P(G))  (T5) 10**  -12
 N. OF SYMMETRY OPERATORS     1  POLE ORDER IN MONO ZONE                  4
 *******************************************************************************
 TYPE OF CALCULATION :  RESTRICTED CLOSED SHELL
 KOHN-SHAM HAMILTONIAN

 (EXCHANGE)[CORRELATION] FUNCTIONAL:(HSE-3c)[PBEh-3c]

 RANGE-SEPARATED HYBRID FUNCTIONAL 
 OMEGA (SHORT-RANGE)[LONG-RANGE]:(    0.1100)[    0.0000]

 HYBRID EXCHANGE - PERCENTAGE OF FOCK EXCHANGE    42.0000

 CAPPA:IS1  2;IS2  5;IS3  1; K PTS MONK NET   6; SYMMOPS:K SPACE   2;G SPACE   1

 *******************************************************************************
 MAX NUMBER OF SCF CYCLES      50  CONVERGENCE ON DELTAP        10**-16
 WEIGHT OF F(I) IN F(I+1)      30% CONVERGENCE ON ENERGY        10**- 6
 S(K) EIGENV. THRESHOLD  10*10.**-4
 SHRINK. FACT.(MONKH.)    2  5  1  NUMBER OF K POINTS IN THE IBZ      6
 SHRINKING FACTOR(GILAT NET)    2  NUMBER OF K POINTS(GILAT NET)      6
 *******************************************************************************
 *** K POINTS COORDINATES (OBLIQUE COORDINATES IN UNITS OF IS =  2)
   1-R(  0  0  0)   2-R(  1  0  0)   3-C(  0  1  0)   4-C(  1  1  0)
   5-C(  0  2  0)   6-C(  1  2  0)

 DIRECT LATTICE VECTORS COMPON. (A.U.)     RECIP. LATTICE VECTORS COMPON. (A.U.) 
        X            Y            Z              X            Y            Z
   10.9636303    3.3789328    0.0000000      0.5730935    0.0000000   -0.1030040
    0.0000000    5.4969043    0.0000000     -0.3522791    1.1430407   -0.3157825
    7.9191311   14.6130112   44.0604649      0.0000000    0.0000000    0.1426037

 DISK SPACE FOR EIGENVECTORS (FTN 10)      924160 REALS

 SYMMETRY ADAPTION OF THE BLOCH FUNCTIONS DISABLED
 TTTTTTTTTTTTTTTTTTTTTTTTTTTTTT gordsh1     TELAPSE        0.16 TCPU        0.05

 MATRIX SIZE: P(G)  193362, F(G)   34638, P(G) IRR   98865, F(G) IRR   35310
 MAX G-VECTOR INDEX FOR 1- AND 2-ELECTRON INTEGRALS 185

 TTTTTTTTTTTTTTTTTTTTTTTTTTTTTT INPUT       TELAPSE        0.18 TCPU        0.06

 NEIGHBORS OF THE NON-EQUIVALENT ATOMS

 N = NUMBER OF NEIGHBORS AT DISTANCE R
    ATOM  N     R/ANG      R/AU   NEIGHBORS (ATOM LABELS AND CELL INDICES)
   1 O    1     0.9677     1.8286   18 H    0 0 0
   1 O    1     0.9870     1.8651   17 H    0 0 0
   1 O    1     1.7069     3.2256   36 H    0 0 0
   1 O    1     2.0549     3.8833   18 H    0 1 0
   1 O    1     2.6846     5.0731   11 O   -1 1 0
   1 O    1     2.6921     5.0874   10 O    0 0 0

   2 O    1     0.9668     1.8270   20 H    0-1 0
   2 O    1     0.9864     1.8640   19 H    0 0 0
   2 O    1     1.6970     3.2069   41 H    1-1 0
   2 O    1     2.0917     3.9528   20 H    0 0 0
   2 O    1     2.6826     5.0693   13 O    1-1 0
   2 O    1     2.6964     5.0955   15 O    0 0 0

   3 O    1     0.9668     1.8269   21 H    0 0 0
   3 O    1     0.9838     1.8592   22 H    1-1 0
   3 O    1     1.7209     3.2521   29 H    1-1 0
   3 O    1     2.1112     3.9897   21 H    0-1 0
   3 O    1     2.7003     5.1029    7 O    1-1 0
   3 O    1     2.7380     5.1740    9 O    1-1 0

   4 O    1     0.9675     1.8283   23 H    0 0 0
   4 O    1     0.9862     1.8636   24 H    0 0 0
   4 O    1     1.7123     3.2358   47 H    0 0 0
   4 O    1     2.0702     3.9120   23 H    0-1 0
   4 O    1     2.6968     5.0961   16 O    1 0 0
   4 O    1     2.7031     5.1081   14 O    0 0 0

   5 O    1     0.9676     1.8286   25 H    0 0 0
   5 O    1     0.9862     1.8637   26 H    0 0 0
   5 O    1     1.7328     3.2745   31 H    0 0 0
   5 O    1     2.0692     3.9103   25 H    0 1 0
   5 O    1     2.6956     5.0939   10 O    0 0 0
   5 O    1     2.7096     5.1203    8 O    0 0 0

   6 O    1     0.9673     1.8280   28 H    0-1 0
   6 O    1     0.9854     1.8621   27 H    0 0 0
   6 O    1     1.7696     3.3441   46 H    0 0 0
   6 O    1     2.0626     3.8978   28 H    0 0 0
   6 O    1     2.7034     5.1088   12 O    0 0 0
   6 O    1     2.7503     5.1973   15 O    0 0 0

   7 O    1     0.9671     1.8276   30 H    0 0 0
   7 O    1     0.9853     1.8620   29 H    0 0 0
   7 O    1     1.7144     3.2397   43 H    0 0 0
   7 O    1     2.0690     3.9099   30 H    0 1 0
   7 O    1     2.6969     5.0964   14 O    0 0 0
   7 O    1     2.7003     5.1029    3 O   -1 1 0

   8 O    1     0.9670     1.8275   32 H    0 1 0
   8 O    1     0.9852     1.8617   31 H    0 0 0
   8 O    1     1.7068     3.2253   39 H    0 0 0
   8 O    1     2.0808     3.9321   32 H    0 0 0
   8 O    1     2.6929     5.0888   12 O    0 1 0
   8 O    1     2.7096     5.1203    5 O    0 0 0

   9 O    1     0.9667     1.8268   33 H    0 0 0
   9 O    1     0.9819     1.8555   34 H    0 0 0
   9 O    1     1.7553     3.3171   22 H    0 0 0
   9 O    1     2.0806     3.9317   33 H    0-1 0
   9 O    1     2.6888     5.0812   13 O    0 0 0
   9 O    1     2.7380     5.1740    3 O   -1 1 0

  10 O    1     0.9669     1.8272   35 H    0 1 0
  10 O    1     0.9862     1.8637   36 H    0 0 0
  10 O    1     1.7167     3.2441   26 H    0 0 0
  10 O    1     2.0876     3.9451   35 H    0 0 0
  10 O    1     2.6921     5.0874    1 O    0 0 0
  10 O    1     2.6956     5.0939    5 O    0 0 0

  11 O    1     0.9675     1.8283   37 H    0 0 0
  11 O    1     0.9865     1.8641   38 H    0 0 0
  11 O    1     1.6994     3.2115   17 H    1-1 0
  11 O    1     2.0677     3.9075   37 H    0-1 0
  11 O    1     2.6846     5.0731    1 O    1-1 0
  11 O    1     2.6944     5.0918   16 O    0-2 1

  12 O    1     0.9666     1.8266   40 H    0-1 0
  12 O    1     0.9866     1.8644   39 H    0-1 0
  12 O    1     1.7264     3.2624   27 H    0 0 0
  12 O    1     2.0807     3.9320   40 H    0 0 0
  12 O    1     2.6929     5.0888    8 O    0-1 0
  12 O    1     2.7034     5.1088    6 O    0 0 0

  13 O    1     0.9673     1.8279   42 H    0 1 0
  13 O    1     0.9873     1.8658   41 H    0 0 0
  13 O    1     1.7163     3.2433   34 H    0 0 0
  13 O    1     2.0542     3.8819   42 H    0 0 0
  13 O    1     2.6826     5.0693    2 O   -1 1 0
  13 O    1     2.6888     5.0812    9 O    0 0 0

  14 O    1     0.9672     1.8278   44 H    0 0 0
  14 O    1     0.9854     1.8622   43 H    0 0 0
  14 O    1     1.7178     3.2462   24 H    0 0 0
  14 O    1     2.0558     3.8849   44 H    0-1 0
  14 O    1     2.6969     5.0964    7 O    0 0 0
  14 O    1     2.7031     5.1081    4 O    0 0 0

  15 O    1     0.9667     1.8267   45 H    0-1 0
  15 O    1     0.9826     1.8568   46 H    0 0 0
  15 O    1     1.7142     3.2393   19 H    0 0 0
  15 O    1     2.1164     3.9994   45 H    0 0 0
  15 O    1     2.6964     5.0955    2 O    0 0 0
  15 O    1     2.7503     5.1973    6 O    0 0 0

  16 O    1     0.9670     1.8274   48 H    0-1 0
  16 O    1     0.9862     1.8637   47 H   -1 0 0
  16 O    1     1.7107     3.2327   38 H    0 2-1
  16 O    1     2.0775     3.9258   48 H    0 0 0
  16 O    1     2.6944     5.0918   11 O    0 2-1
  16 O    1     2.6968     5.0961    4 O   -1 0 0

  17 H    1     0.9870     1.8651    1 O    0 0 0
  17 H    1     1.5620     2.9517   18 H    0 0 0
  17 H    1     1.6994     3.2115   11 O   -1 1 0
  17 H    1     2.1804     4.1203   38 H   -1 1 0
  17 H    1     2.1879     4.1346   36 H    0 0 0
  17 H    1     2.1908     4.1401   37 H   -1 1 0

  18 H    1     0.9677     1.8286    1 O    0 0 0
  18 H    1     1.5620     2.9517   17 H    0 0 0
  18 H    1     2.0549     3.8833    1 O    0-1 0
  18 H    1     2.1557     4.0736   36 H    0 0 0
  18 H    1     2.3596     4.4591   17 H    0-1 0
  18 H    1     2.7266     5.1525   38 H    0 0 0

  19 H    1     0.9864     1.8640    2 O    0 0 0
  19 H    1     1.5492     2.9275   20 H    0-1 0
  19 H    1     1.7142     3.2393   15 O    0 0 0
  19 H    1     2.1635     4.0884   41 H    1-1 0
  19 H    1     2.1984     4.1545   45 H    0-1 0
  19 H    1     2.2971     4.3408   46 H    0 0 0

  20 H    1     0.9668     1.8270    2 O    0 1 0
  20 H    1     1.5492     2.9275   19 H    0 1 0
  20 H    1     2.0917     3.9528    2 O    0 0 0
  20 H    1     2.1700     4.1006   41 H    1 0 0
  20 H    1     2.5092     4.7417   19 H    0 0 0
  20 H    1     2.7451     5.1875   41 H    1-1 0

  21 H    1     0.9668     1.8269    3 O    0 0 0
  21 H    1     1.5493     2.9277   22 H    1-1 0
  21 H    1     2.1112     3.9897    3 O    0 1 0
  21 H    1     2.1924     4.1431   29 H    1-1 0
  21 H    1     2.5409     4.8017   22 H    1 0 0
  21 H    1     2.8632     5.4106   33 H    0 0 0

  22 H    1     0.9838     1.8592    3 O   -1 1 0
  22 H    1     1.5493     2.9277   21 H   -1 1 0
  22 H    1     1.7553     3.3171    9 O    0 0 0
  22 H    1     2.1100     3.9873   29 H    0 0 0
  22 H    1     2.1719     4.1042   34 H    0 0 0
  22 H    1     2.2420     4.2367   33 H    0 0 0

  23 H    1     0.9675     1.8283    4 O    0 0 0
  23 H    1     1.5549     2.9384   24 H    0 0 0
  23 H    1     2.0702     3.9120    4 O    0 1 0
  23 H    1     2.1674     4.0958   47 H    0 0 0
  23 H    1     2.4165     4.5665   24 H    0 1 0
  23 H    1     2.7024     5.1069   48 H    0 0 0

  24 H    1     0.9862     1.8636    4 O    0 0 0
  24 H    1     1.5549     2.9384   23 H    0 0 0
  24 H    1     1.7178     3.2462   14 O    0 0 0
  24 H    1     2.1719     4.1043   44 H    0 0 0
  24 H    1     2.1996     4.1566   43 H    0 0 0
  24 H    1     2.2714     4.2923   47 H    0 0 0

  25 H    1     0.9676     1.8286    5 O    0 0 0
  25 H    1     1.5580     2.9442   26 H    0 0 0
  25 H    1     2.0692     3.9103    5 O    0-1 0
  25 H    1     2.2241     4.2030   31 H    0 0 0
  25 H    1     2.4358     4.6030   26 H    0-1 0
  25 H    1     2.6354     4.9803   35 H    1 0 0

  26 H    1     0.9862     1.8637    5 O    0 0 0
  26 H    1     1.5580     2.9442   25 H    0 0 0
  26 H    1     1.7167     3.2441   10 O    0 0 0
  26 H    1     2.1284     4.0220   31 H    0 0 0
  26 H    1     2.1696     4.0999   35 H    0 1 0
  26 H    1     2.2883     4.3243   36 H    0 0 0

  27 H    1     0.9854     1.8621    6 O    0 0 0
  27 H    1     1.5486     2.9264   28 H    0-1 0
  27 H    1     1.7264     3.2624   12 O    0 0 0
  27 H    1     2.1596     4.0811   39 H    0-1 0
  27 H    1     2.1882     4.1350   46 H    0 0 0
  27 H    1     2.2314     4.2168   40 H    0-1 0

  28 H    1     0.9673     1.8280    6 O    0 1 0
  28 H    1     1.5486     2.9264   27 H    0 1 0
  28 H    1     2.0626     3.8978    6 O    0 0 0
  28 H    1     2.2412     4.2353   46 H    0 1 0
  28 H    1     2.4791     4.6848   27 H    0 0 0
  28 H    1     2.6733     5.0519   46 H    0 0 0

  29 H    1     0.9853     1.8620    7 O    0 0 0
  29 H    1     1.5559     2.9402   30 H    0 0 0
  29 H    1     1.7209     3.2521    3 O   -1 1 0
  29 H    1     2.1100     3.9873   22 H    0 0 0
  29 H    1     2.1924     4.1431   21 H   -1 1 0
  29 H    1     2.2144     4.1845   43 H    0 0 0

  30 H    1     0.9671     1.8276    7 O    0 0 0
  30 H    1     1.5559     2.9402   29 H    0 0 0
  30 H    1     2.0690     3.9099    7 O    0-1 0
  30 H    1     2.2117     4.1795   43 H    0 0 0
  30 H    1     2.4450     4.6204   29 H    0-1 0
  30 H    1     2.6206     4.9522   43 H    0-1 0

  31 H    1     0.9852     1.8617    8 O    0 0 0
  31 H    1     1.5624     2.9524   32 H    0 1 0
  31 H    1     1.7328     3.2745    5 O    0 0 0
  31 H    1     2.1284     4.0220   26 H    0 0 0
  31 H    1     2.1741     4.1085   39 H    0 0 0
  31 H    1     2.2241     4.2030   25 H    0 0 0

  32 H    1     0.9670     1.8275    8 O    0-1 0
  32 H    1     1.5624     2.9524   31 H    0-1 0
  32 H    1     2.0808     3.9321    8 O    0 0 0
  32 H    1     2.1486     4.0603   39 H    0-1 0
  32 H    1     2.4030     4.5411   31 H    0 0 0
  32 H    1     2.7399     5.1777   40 H    1-1 0

  33 H    1     0.9667     1.8268    9 O    0 0 0
  33 H    1     1.5453     2.9202   34 H    0 0 0
  33 H    1     2.0806     3.9317    9 O    0 1 0
  33 H    1     2.2420     4.2367   22 H    0 0 0
  33 H    1     2.4947     4.7143   34 H    0 1 0
  33 H    1     2.7363     5.1709   22 H    0 1 0

  34 H    1     0.9819     1.8555    9 O    0 0 0
  34 H    1     1.5453     2.9202   33 H    0 0 0
  34 H    1     1.7163     3.2433   13 O    0 0 0
  34 H    1     2.1635     4.0884   41 H    0 0 0
  34 H    1     2.1719     4.1042   22 H    0 0 0
  34 H    1     2.2174     4.1902   42 H    0 1 0

  35 H    1     0.9669     1.8272   10 O    0-1 0
  35 H    1     1.5523     2.9334   36 H    0-1 0
  35 H    1     2.0876     3.9451   10 O    0 0 0
  35 H    1     2.1696     4.0999   26 H    0-1 0
  35 H    1     2.4318     4.5954   36 H    0 0 0
  35 H    1     2.6354     4.9803   25 H   -1 0 0

  36 H    1     0.9862     1.8637   10 O    0 0 0
  36 H    1     1.5523     2.9334   35 H    0 1 0
  36 H    1     1.7069     3.2256    1 O    0 0 0
  36 H    1     2.1557     4.0736   18 H    0 0 0
  36 H    1     2.1879     4.1346   17 H    0 0 0
  36 H    1     2.2883     4.3243   26 H    0 0 0

  37 H    1     0.9675     1.8283   11 O    0 0 0
  37 H    1     1.5540     2.9366   38 H    0 0 0
  37 H    1     2.0677     3.9075   11 O    0 1 0
  37 H    1     2.1908     4.1401   17 H    1-1 0
  37 H    1     2.4372     4.6057   38 H    0 1 0
  37 H    1     2.6678     5.0414   17 H    1 0 0

  38 H    1     0.9865     1.8641   11 O    0 0 0
  38 H    1     1.5540     2.9366   37 H    0 0 0
  38 H    1     1.7107     3.2327   16 O    0-2 1
  38 H    1     2.1548     4.0720   48 H    0-3 1
  38 H    1     2.1804     4.1203   17 H    1-1 0
  38 H    1     2.2587     4.2683   47 H   -1-2 1

  39 H    1     0.9866     1.8644   12 O    0 1 0
  39 H    1     1.5462     2.9219   40 H    0 0 0
  39 H    1     1.7068     3.2253    8 O    0 0 0
  39 H    1     2.1486     4.0603   32 H    0 1 0
  39 H    1     2.1596     4.0811   27 H    0 1 0
  39 H    1     2.1741     4.1085   31 H    0 0 0

  40 H    1     0.9666     1.8266   12 O    0 1 0
  40 H    1     1.5462     2.9219   39 H    0 0 0
  40 H    1     2.0807     3.9320   12 O    0 0 0
  40 H    1     2.2314     4.2168   27 H    0 1 0
  40 H    1     2.4727     4.6727   39 H    0-1 0
  40 H    1     2.7346     5.1677   27 H    0 0 0

  41 H    1     0.9873     1.8658   13 O    0 0 0
  41 H    1     1.5581     2.9444   42 H    0 1 0
  41 H    1     1.6970     3.2069    2 O   -1 1 0
  41 H    1     2.1635     4.0884   34 H    0 0 0
  41 H    1     2.1635     4.0884   19 H   -1 1 0
  41 H    1     2.1700     4.1006   20 H   -1 0 0

  42 H    1     0.9673     1.8279   13 O    0-1 0
  42 H    1     1.5581     2.9444   41 H    0-1 0
  42 H    1     2.0542     3.8819   13 O    0 0 0
  42 H    1     2.2174     4.1902   34 H    0-1 0
  42 H    1     2.3941     4.5242   41 H    0 0 0
  42 H    1     2.6636     5.0334   34 H    0 0 0

  43 H    1     0.9854     1.8622   14 O    0 0 0
  43 H    1     1.5636     2.9548   44 H    0 0 0
  43 H    1     1.7144     3.2397    7 O    0 0 0
  43 H    1     2.1996     4.1566   24 H    0 0 0
  43 H    1     2.2117     4.1795   30 H    0 0 0
  43 H    1     2.2144     4.1845   29 H    0 0 0

  44 H    1     0.9672     1.8278   14 O    0 0 0
  44 H    1     1.5636     2.9548   43 H    0 0 0
  44 H    1     2.0558     3.8849   14 O    0 1 0
  44 H    1     2.1719     4.1043   24 H    0 0 0
  44 H    1     2.3385     4.4191   43 H    0 1 0
  44 H    1     2.7056     5.1128   29 H    1 0 0

  45 H    1     0.9667     1.8267   15 O    0 1 0
  45 H    1     1.5452     2.9200   46 H    0 1 0
  45 H    1     2.1164     3.9994   15 O    0 0 0
  45 H    1     2.1984     4.1545   19 H    0 1 0
  45 H    1     2.5279     4.7771   46 H    0 0 0
  45 H    1     2.7004     5.1030   19 H    0 0 0

  46 H    1     0.9826     1.8568   15 O    0 0 0
  46 H    1     1.5452     2.9200   45 H    0-1 0
  46 H    1     1.7696     3.3441    6 O    0 0 0
  46 H    1     2.1882     4.1350   27 H    0 0 0
  46 H    1     2.2412     4.2353   28 H    0-1 0
  46 H    1     2.2971     4.3408   19 H    0 0 0

  47 H    1     0.9862     1.8637   16 O    1 0 0
  47 H    1     1.5556     2.9396   48 H    1-1 0
  47 H    1     1.7123     3.2358    4 O    0 0 0
  47 H    1     2.1674     4.0958   23 H    0 0 0
  47 H    1     2.2587     4.2683   38 H    1 2-1
  47 H    1     2.2714     4.2923   24 H    0 0 0

  48 H    1     0.9670     1.8274   16 O    0 1 0
  48 H    1     1.5556     2.9396   47 H   -1 1 0
  48 H    1     2.0775     3.9258   16 O    0 0 0
  48 H    1     2.1548     4.0720   38 H    0 3-1
  48 H    1     2.4104     4.5551   47 H   -1 0 0
  48 H    1     2.7024     5.1069   23 H    0 0 0


 SYMMETRY ALLOWED INTERNAL DEGREE(S) OF FREEDOM: 141
 TTTTTTTTTTTTTTTTTTTTTTTTTTTTTT SYMM        TELAPSE        0.18 TCPU        0.07
 TTTTTTTTTTTTTTTTTTTTTTTTTTTTTT INT_SCREEN  TELAPSE        0.19 TCPU        0.07

 DFT PARAMETERS

     ATOM       ELECTRONS   NET CHARGE   R(ANGSTROM)
   1   8  O       8.0000      0.0000     0.74000000
  17   1  H       1.0000      0.0000     1.11000000

 SIZE OF GRID=    1051037
 TTTTTTTTTTTTTTTTTTTTTTTTTTTTTT MAKE_GRID2  TELAPSE       17.79 TCPU       17.59
 BECKE WEIGHT FUNCTION
 RADSAFE =     2.00
 TOLERANCES - DENSITY:10**- 6; POTENTIAL:10**- 9; GRID WGT:10**-14

 RADIAL INTEGRATION  - INTERVALS (POINTS,UPPER LIMIT):            1( 75,  4.0*R)

 ANGULAR INTEGRATION - INTERVALS (ACCURACY LEVEL [N. POINTS] UPPER LIMIT):
  1(  4[  86]   0.2)  2(  8[ 194]   0.5)  3( 12[ 350]   0.9)  4( 16[ 974]   3.5)
  5( 12[ 350]9999.0)
 TTTTTTTTTTTTTTTTTTTTTTTTTTTTTT INT_CALC    TELAPSE       17.83 TCPU       17.64
 EEEEEEEEEE INT_CALC TERMINATION  DATE 25 03 2019 TIME 17:50:15.5

 *******************************************************************************
 !drive by JGB                                                                   
 CRYSTAL - SCF - TYPE OF CALCULATION :  RESTRICTED CLOSED SHELL
 *******************************************************************************

 CAPPA:IS1  2;IS2  5;IS3  1; K PTS MONK NET   6; SYMMOPS:K SPACE   2;G SPACE   1

 TTTTTTTTTTTTTTTTTTTTTTTTTTTTTT SDIK        TELAPSE       18.29 TCPU       18.10

 AAAAAAAAAAAAAAAAAAAAAAAAAAAAAAAAAAAAAAAAAAAAAAAAAAAAAAAAAAAAAAAAAAAAAAAAAAAAAAA
         ATOMIC WAVEFUNCTION(S)


 NUCLEAR CHARGE  8.0  SYMMETRY SPECIES            S    P
 N. ELECTRONS    8.0  NUMBER OF PRIMITIVE GTOS    8    4
                      NUMBER OF CONTRACTED GTOS   4    2
                      NUMBER OF CLOSED SHELLS     2    0
                      OPEN SHELL OCCUPATION       0    4

  ZNUC SCFIT  TOTAL HF ENERGY   KINETIC ENERGY   VIRIAL THEOREM ACCURACY
   8.0  12   -7.477373220E+01  7.477365593E+01 -2.000001020E+00  3.8E-06

 NUCLEAR CHARGE  1.0  SYMMETRY SPECIES            S
 N. ELECTRONS    1.0  NUMBER OF PRIMITIVE GTOS    4
                      NUMBER OF CONTRACTED GTOS   2
                      NUMBER OF CLOSED SHELLS     0
                      OPEN SHELL OCCUPATION       1

  ZNUC SCFIT  TOTAL HF ENERGY   KINETIC ENERGY   VIRIAL THEOREM ACCURACY
   1.0   1   -4.977266687E-01  5.190767460E-01 -1.958869132E+00  1.8E-16

 AAAAAAAAAAAAAAAAAAAAAAAAAAAAAAAAAAAAAAAAAAAAAAAAAAAAAAAAAAAAAAAAAAAAAAAAAAAAAAA

 CHARGE NORMALIZATION FACTOR   1.00000000
 TOTAL ATOMIC CHARGES:
   8.0000000   8.0000000   8.0000000   8.0000000   8.0000000   8.0000000
   8.0000000   8.0000000   8.0000000   8.0000000   8.0000000   8.0000000
   8.0000000   8.0000000   8.0000000   8.0000000   1.0000000   1.0000000
   1.0000000   1.0000000   1.0000000   1.0000000   1.0000000   1.0000000
   1.0000000   1.0000000   1.0000000   1.0000000   1.0000000   1.0000000
   1.0000000   1.0000000   1.0000000   1.0000000   1.0000000   1.0000000
   1.0000000   1.0000000   1.0000000   1.0000000   1.0000000   1.0000000
   1.0000000   1.0000000   1.0000000   1.0000000   1.0000000   1.0000000
 TTTTTTTTTTTTTTTTTTTTTTTTTTTTTT MOQGAD      TELAPSE       18.89 TCPU       18.70
 TTTTTTTTTTTTTTTTTTTTTTTTTTTTTT SHELLXN     TELAPSE       46.03 TCPU       45.80
 TTTTTTTTTTTTTTTTTTTTTTTTTTTTTT MONMO3      TELAPSE       48.84 TCPU       48.61
 NUMERICALLY INTEGRATED DENSITY    159.9999842468
 TTTTTTTTTTTTTTTTTTTTTTTTTTTTTT NUMDFT      TELAPSE       50.63 TCPU       50.39
 CYC   0 ETOT(AU) -1.220934294257E+03 DETOT -1.22E+03 tst  0.00E+00 PX  1.00E+00
 TTTTTTTTTTTTTTTTTTTTTTTTTTTTTT DIIS        TELAPSE       50.65 TCPU       50.40
 TTTTTTTTTTTTTTTTTTTTTTTTTTTTTT FDIK        TELAPSE       51.40 TCPU       51.04
 INSULATING STATE
 TOP OF VALENCE BANDS -    BAND     80; K    1; EIG -4.1545676E-01 AU
 BOTTOM OF VIRTUAL BANDS - BAND     81; K    1; EIG -1.0077511E-01 AU
 DIRECT ENERGY BAND GAP:   8.5629 eV
 TTTTTTTTTTTTTTTTTTTTTTTTTTTTTT PDIG        TELAPSE       51.42 TCPU       51.06
 CHARGE NORMALIZATION FACTOR   1.00000000
 TOTAL ATOMIC CHARGES:
   9.0711468   9.0655950   9.0618850   9.0702924   9.0702780   9.0710465
   9.0722198   9.0651279   9.0694222   9.0715214   9.0695392   9.0707682
   9.0748051   9.0721758   9.0648223   9.0703147   0.4701513   0.4592466
   0.4669853   0.4611067   0.4627839   0.4724686   0.4607019   0.4698569
   0.4609392   0.4684104   0.4718143   0.4599272   0.4704067   0.4597115
   0.4698880   0.4605997   0.4594473   0.4710252   0.4613649   0.4700874
   0.4591115   0.4690779   0.4738529   0.4599007   0.4723933   0.4581500
   0.4703409   0.4580688   0.4632106   0.4700260   0.4673883   0.4605959
 TTTTTTTTTTTTTTTTTTTTTTTTTTTTTT MOQGAD      TELAPSE       51.43 TCPU       51.06
 TTTTTTTTTTTTTTTTTTTTTTTTTTTTTT SHELLXN     TELAPSE       79.39 TCPU       78.80
 TTTTTTTTTTTTTTTTTTTTTTTTTTTTTT MONMO3      TELAPSE       82.00 TCPU       81.41
 NUMERICALLY INTEGRATED DENSITY    159.9999819476
 TTTTTTTTTTTTTTTTTTTTTTTTTTTTTT NUMDFT      TELAPSE       86.08 TCPU       85.46
 CYC   1 ETOT(AU) -1.220234493318E+03 DETOT  7.00E-01 tst  0.00E+00 PX  1.00E+00
 TTTTTTTTTTTTTTTTTTTTTTTTTTTTTT DIIS        TELAPSE       86.18 TCPU       85.56
 DIIS TEST: 0.17957E+01 AT SCF   CYCLE   1 - MIX   30 %
 TTTTTTTTTTTTTTTTTTTTTTTTTTTTTT FDIK        TELAPSE       86.41 TCPU       85.79
 INSULATING STATE
 TOP OF VALENCE BANDS -    BAND     80; K    1; EIG -3.1322242E-01 AU
 BOTTOM OF VIRTUAL BANDS - BAND     81; K    1; EIG -4.1768768E-02 AU
 DIRECT ENERGY BAND GAP:   7.3866 eV
 TTTTTTTTTTTTTTTTTTTTTTTTTTTTTT PDIG        TELAPSE       86.43 TCPU       85.81
 CHARGE NORMALIZATION FACTOR   1.00000000
 TOTAL ATOMIC CHARGES:
   8.8450640   8.8378714   8.8327333   8.8436099   8.8414623   8.8403769
   8.8455786   8.8369259   8.8366506   8.8408335   8.8433497   8.8381521
   8.8460614   8.8418087   8.8363985   8.8430528   0.5810375   0.5759947
   0.5739120   0.5802514   0.5793183   0.5875944   0.5777432   0.5796679
   0.5790628   0.5787922   0.5837335   0.5779663   0.5807464   0.5764186
   0.5821270   0.5779013   0.5795025   0.5807793   0.5804738   0.5797669
   0.5755320   0.5777519   0.5855934   0.5800636   0.5851242   0.5752506
   0.5839097   0.5767412   0.5801504   0.5827847   0.5754429   0.5789358
 TTTTTTTTTTTTTTTTTTTTTTTTTTTTTT MOQGAD      TELAPSE       86.44 TCPU       85.82
 TTTTTTTTTTTTTTTTTTTTTTTTTTTTTT SHELLXN     TELAPSE      114.57 TCPU      113.56
 TTTTTTTTTTTTTTTTTTTTTTTTTTTTTT MONMO3      TELAPSE      116.98 TCPU      115.90
 NUMERICALLY INTEGRATED DENSITY    159.9999794110
 TTTTTTTTTTTTTTTTTTTTTTTTTTTTTT NUMDFT      TELAPSE      121.03 TCPU      119.84
 CYC   2 ETOT(AU) -1.220594929119E+03 DETOT -3.60E-01 tst  2.39E-03 PX  1.30E-01
 TTTTTTTTTTTTTTTTTTTTTTTTTTTTTT DIIS        TELAPSE      121.14 TCPU      119.95
 DIIS TEST: 0.40458E+00 AT SCF   CYCLE   2 - DIIS ACTIVE - HISTORY:     2 CYCLES
 TTTTTTTTTTTTTTTTTTTTTTTTTTTTTT FDIK        TELAPSE      124.35 TCPU      119.95
 INSULATING STATE
 TOP OF VALENCE BANDS -    BAND     80; K    1; EIG -3.6308156E-01 AU
 BOTTOM OF VIRTUAL BANDS - BAND     81; K    1; EIG -4.5158119E-02 AU
 DIRECT ENERGY BAND GAP:   8.6511 eV
 TTTTTTTTTTTTTTTTTTTTTTTTTTTTTT PDIG        TELAPSE      124.37 TCPU      119.97
 CHARGE NORMALIZATION FACTOR   1.00000000
 TOTAL ATOMIC CHARGES:
   8.9214374   8.9138787   8.9109718   8.9208726   8.9193115   8.9196828
   8.9209592   8.9135134   8.9157927   8.9188237   8.9194201   8.9157358
   8.9221887   8.9182895   8.9144160   8.9202949   0.5414500   0.5391220
   0.5351463   0.5433174   0.5411297   0.5473634   0.5406361   0.5390448
   0.5407524   0.5395401   0.5423446   0.5401845   0.5411343   0.5395421
   0.5422033   0.5410056   0.5421518   0.5397297   0.5425595   0.5393892
   0.5389514   0.5386682   0.5457903   0.5427489   0.5456289   0.5387676
   0.5440432   0.5403926   0.5420379   0.5422248   0.5359403   0.5414705
 TTTTTTTTTTTTTTTTTTTTTTTTTTTTTT MOQGAD      TELAPSE      124.38 TCPU      119.98
 TTTTTTTTTTTTTTTTTTTTTTTTTTTTTT SHELLXN     TELAPSE      152.27 TCPU      147.75
 TTTTTTTTTTTTTTTTTTTTTTTTTTTTTT MONMO3      TELAPSE      154.95 TCPU      150.43
 NUMERICALLY INTEGRATED DENSITY    159.9999803388
 TTTTTTTTTTTTTTTTTTTTTTTTTTTTTT NUMDFT      TELAPSE      158.93 TCPU      154.41
 CYC   3 ETOT(AU) -1.220701797826E+03 DETOT -1.07E-01 tst  2.29E-04 PX  4.86E-02
 TTTTTTTTTTTTTTTTTTTTTTTTTTTTTT DIIS        TELAPSE      159.04 TCPU      154.52
 DIIS TEST: 0.20415E-02 AT SCF   CYCLE   3 - DIIS ACTIVE - HISTORY:     3 CYCLES
 TTTTTTTTTTTTTTTTTTTTTTTTTTTTTT FDIK        TELAPSE      159.24 TCPU      154.68
 INSULATING STATE
 TOP OF VALENCE BANDS -    BAND     80; K    1; EIG -3.6034310E-01 AU
 BOTTOM OF VIRTUAL BANDS - BAND     81; K    1; EIG -4.2254835E-02 AU
 DIRECT ENERGY BAND GAP:   8.6556 eV
 TTTTTTTTTTTTTTTTTTTTTTTTTTTTTT PDIG        TELAPSE      159.27 TCPU      154.71
 CHARGE NORMALIZATION FACTOR   1.00000000
 TOTAL ATOMIC CHARGES:
   8.9188039   8.9107350   8.9068335   8.9174547   8.9156790   8.9150873
   8.9188076   8.9102758   8.9110838   8.9149050   8.9165671   8.9122651
   8.9197285   8.9152126   8.9103398   8.9167582   0.5423916   0.5408621
   0.5366959   0.5452164   0.5436733   0.5487210   0.5425791   0.5405239
   0.5430043   0.5408855   0.5441850   0.5426829   0.5421318   0.5412696
   0.5435175   0.5431467   0.5447491   0.5414994   0.5448614   0.5408316
   0.5408082   0.5398262   0.5469234   0.5449916   0.5463693   0.5406142
   0.5448985   0.5423273   0.5444750   0.5438893   0.5374112   0.5435008
 TTTTTTTTTTTTTTTTTTTTTTTTTTTTTT MOQGAD      TELAPSE      159.27 TCPU      154.71
 TTTTTTTTTTTTTTTTTTTTTTTTTTTTTT SHELLXN     TELAPSE      187.59 TCPU      182.49
 TTTTTTTTTTTTTTTTTTTTTTTTTTTTTT MONMO3      TELAPSE      189.81 TCPU      184.71
 NUMERICALLY INTEGRATED DENSITY    159.9999803266
 TTTTTTTTTTTTTTTTTTTTTTTTTTTTTT NUMDFT      TELAPSE      194.07 TCPU      188.95
 CYC   4 ETOT(AU) -1.220702166443E+03 DETOT -3.69E-04 tst  7.14E-07 PX  2.32E-03
 TTTTTTTTTTTTTTTTTTTTTTTTTTTTTT DIIS        TELAPSE      194.18 TCPU      189.05
 DIIS TEST: 0.40830E-04 AT SCF   CYCLE   4 - DIIS ACTIVE - HISTORY:     4 CYCLES
 TTTTTTTTTTTTTTTTTTTTTTTTTTTTTT FDIK        TELAPSE      194.35 TCPU      189.22
 INSULATING STATE
 TOP OF VALENCE BANDS -    BAND     80; K    1; EIG -3.6040998E-01 AU
 BOTTOM OF VIRTUAL BANDS - BAND     81; K    1; EIG -4.1964608E-02 AU
 DIRECT ENERGY BAND GAP:   8.6653 eV
 TTTTTTTTTTTTTTTTTTTTTTTTTTTTTT PDIG        TELAPSE      194.38 TCPU      189.25
 CHARGE NORMALIZATION FACTOR   1.00000000
 TOTAL ATOMIC CHARGES:
   8.9179578   8.9103260   8.9076626   8.9174257   8.9158721   8.9162306
   8.9174144   8.9100432   8.9122978   8.9153673   8.9159940   8.9121425
   8.9186812   8.9148322   8.9109880   8.9168716   0.5428192   0.5411888
   0.5366870   0.5453970   0.5430987   0.5486457   0.5425974   0.5405660
   0.5427978   0.5409251   0.5438426   0.5421349   0.5425349   0.5417140
   0.5435961   0.5431434   0.5441480   0.5412540   0.5446283   0.5407821
   0.5410431   0.5400439   0.5471868   0.5448828   0.5469161   0.5409140
   0.5453860   0.5424674   0.5440576   0.5436435   0.5373642   0.5434868
 TTTTTTTTTTTTTTTTTTTTTTTTTTTTTT MOQGAD      TELAPSE      194.39 TCPU      189.26
 TTTTTTTTTTTTTTTTTTTTTTTTTTTTTT SHELLXN     TELAPSE      222.36 TCPU      217.02
 TTTTTTTTTTTTTTTTTTTTTTTTTTTTTT MONMO3      TELAPSE      224.94 TCPU      219.60
 NUMERICALLY INTEGRATED DENSITY    159.9999803180
 TTTTTTTTTTTTTTTTTTTTTTTTTTTTTT NUMDFT      TELAPSE      229.08 TCPU      223.74
 CYC   5 ETOT(AU) -1.220702174340E+03 DETOT -7.90E-06 tst  4.22E-08 PX  8.71E-04
 TTTTTTTTTTTTTTTTTTTTTTTTTTTTTT DIIS        TELAPSE      229.19 TCPU      223.85
 DIIS TEST: 0.13571E-04 AT SCF   CYCLE   5 - DIIS ACTIVE - HISTORY:     5 CYCLES
 TTTTTTTTTTTTTTTTTTTTTTTTTTTTTT FDIK        TELAPSE      229.37 TCPU      224.01
 INSULATING STATE
 TOP OF VALENCE BANDS -    BAND     80; K    1; EIG -3.6024935E-01 AU
 BOTTOM OF VIRTUAL BANDS - BAND     81; K    1; EIG -4.1938173E-02 AU
 DIRECT ENERGY BAND GAP:   8.6617 eV
 TTTTTTTTTTTTTTTTTTTTTTTTTTTTTT PDIG        TELAPSE      229.38 TCPU      224.03
 CHARGE NORMALIZATION FACTOR   1.00000000
 TOTAL ATOMIC CHARGES:
   8.9184824   8.9105404   8.9070284   8.9173900   8.9156937   8.9154271
   8.9183277   8.9101524   8.9114151   8.9149776   8.9163076   8.9121878
   8.9193627   8.9149739   8.9105103   8.9167216   0.5425943   0.5409830
   0.5366925   0.5453113   0.5434183   0.5488758   0.5426099   0.5405582
   0.5429174   0.5409860   0.5441080   0.5424814   0.5422870   0.5414071
   0.5435833   0.5431336   0.5445343   0.5414574   0.5447893   0.5408445
   0.5409187   0.5399345   0.5471236   0.5449204   0.5466421   0.5406904
   0.5451766   0.5423901   0.5443050   0.5438755   0.5374124   0.5435392
 TTTTTTTTTTTTTTTTTTTTTTTTTTTTTT MOQGAD      TELAPSE      229.39 TCPU      224.03
 TTTTTTTTTTTTTTTTTTTTTTTTTTTTTT SHELLXN     TELAPSE      257.43 TCPU      251.78
 TTTTTTTTTTTTTTTTTTTTTTTTTTTTTT MONMO3      TELAPSE      259.95 TCPU      254.30
 NUMERICALLY INTEGRATED DENSITY    159.9999803222
 TTTTTTTTTTTTTTTTTTTTTTTTTTTTTT NUMDFT      TELAPSE      264.00 TCPU      258.28
 CYC   6 ETOT(AU) -1.220702176384E+03 DETOT -2.04E-06 tst  4.85E-09 PX  4.83E-04
 TTTTTTTTTTTTTTTTTTTTTTTTTTTTTT DIIS        TELAPSE      264.10 TCPU      258.38
 DIIS TEST: 0.39294E-05 AT SCF   CYCLE   6 - DIIS ACTIVE - HISTORY:     6 CYCLES
 TTTTTTTTTTTTTTTTTTTTTTTTTTTTTT FDIK        TELAPSE      264.56 TCPU      258.39
 INSULATING STATE
 TOP OF VALENCE BANDS -    BAND     80; K    1; EIG -3.6027612E-01 AU
 BOTTOM OF VIRTUAL BANDS - BAND     81; K    1; EIG -4.1933553E-02 AU
 DIRECT ENERGY BAND GAP:   8.6625 eV
 TTTTTTTTTTTTTTTTTTTTTTTTTTTTTT PDIG        TELAPSE      264.58 TCPU      258.41
 CHARGE NORMALIZATION FACTOR   1.00000000
 TOTAL ATOMIC CHARGES:
   8.9183023   8.9104528   8.9071640   8.9173542   8.9156873   8.9155815
   8.9180227   8.9100747   8.9116034   8.9150519   8.9162031   8.9121037
   8.9191101   8.9149370   8.9105710   8.9167356   0.5426612   0.5410644
   0.5367167   0.5453567   0.5433790   0.5487908   0.5426292   0.5405778
   0.5429274   0.5409706   0.5440635   0.5424320   0.5423692   0.5415303
   0.5436040   0.5431781   0.5444730   0.5414213   0.5447750   0.5408401
   0.5409692   0.5399696   0.5471426   0.5449644   0.5467198   0.5408013
   0.5452166   0.5424317   0.5442862   0.5438257   0.5374156   0.5435419
 TTTTTTTTTTTTTTTTTTTTTTTTTTTTTT MOQGAD      TELAPSE      264.58 TCPU      258.41
 TTTTTTTTTTTTTTTTTTTTTTTTTTTTTT SHELLXN     TELAPSE      292.90 TCPU      286.17
 TTTTTTTTTTTTTTTTTTTTTTTTTTTTTT MONMO3      TELAPSE      295.14 TCPU      288.40
 NUMERICALLY INTEGRATED DENSITY    159.9999803203
 TTTTTTTTTTTTTTTTTTTTTTTTTTTTTT NUMDFT      TELAPSE      299.13 TCPU      292.39
 CYC   7 ETOT(AU) -1.220702176679E+03 DETOT -2.95E-07 tst  3.98E-10 PX  1.53E-04
 TTTTTTTTTTTTTTTTTTTTTTTTTTTTTT DIIS        TELAPSE      299.23 TCPU      292.49
 DIIS TEST: 0.78057E-07 AT SCF   CYCLE   7 - DIIS ACTIVE - HISTORY:     7 CYCLES
 TTTTTTTTTTTTTTTTTTTTTTTTTTTTTT FDIK        TELAPSE      299.40 TCPU      292.53
 INSULATING STATE
 TOP OF VALENCE BANDS -    BAND     80; K    1; EIG -3.6027629E-01 AU
 BOTTOM OF VIRTUAL BANDS - BAND     81; K    1; EIG -4.1935219E-02 AU
 DIRECT ENERGY BAND GAP:   8.6625 eV
 TTTTTTTTTTTTTTTTTTTTTTTTTTTTTT PDIG        TELAPSE      299.42 TCPU      292.55
 CHARGE NORMALIZATION FACTOR   1.00000000
 TOTAL ATOMIC CHARGES:
   8.9183185   8.9104414   8.9071277   8.9173559   8.9156928   8.9155617
   8.9180838   8.9100812   8.9115620   8.9150182   8.9161880   8.9121358
   8.9191679   8.9148855   8.9105798   8.9167103   0.5426624   0.5410575
   0.5367132   0.5453605   0.5433835   0.5488242   0.5426321   0.5405806
   0.5429206   0.5409819   0.5440654   0.5424349   0.5423558   0.5415030
   0.5436016   0.5431692   0.5444831   0.5414315   0.5447852   0.5408484
   0.5409751   0.5399785   0.5471436   0.5449445   0.5467128   0.5407722
   0.5452384   0.5424443   0.5442794   0.5438310   0.5374212   0.5435540
 TTTTTTTTTTTTTTTTTTTTTTTTTTTTTT MOQGAD      TELAPSE      299.43 TCPU      292.56
 TTTTTTTTTTTTTTTTTTTTTTTTTTTTTT SHELLXN     TELAPSE      327.24 TCPU      320.31
 +++ ENERGIES IN A.U. +++
 ::: EXT EL-POLE                                  -1.3544948286747E+03
 ::: EXT EL-SPHEROPOLE                             1.6075599428470E+01
 ::: BIELET ZONE E-E                               1.6612386886193E+03
 ::: TOTAL E-E                                     3.2281945937308E+02
 ::: TOTAL E-N + N-E                              -2.4141270137789E+03
 ::: TOTAL N-N                                    -2.5086009940822E+02
 ::: KINETIC ENERGY                                1.2129614028992E+03
 ::: PSEUDO TOTAL   ENERGY                        -1.1292062509148E+03
 ::: VIRIAL COEFFICIENT                            1.0357596740985E+00
 TTTTTTTTTTTTTTTTTTTTTTTTTTTTTT MONMO3      TELAPSE      329.95 TCPU      323.02
 NUMERICALLY INTEGRATED DENSITY    159.9999803205
 TTTTTTTTTTTTTTTTTTTTTTTTTTTTTT NUMDFT      TELAPSE      333.94 TCPU      326.99
 CYC   8 ETOT(AU) -1.220702176693E+03 DETOT -1.40E-08 tst  3.10E-11 PX  1.53E-04

 == SCF ENDED - CONVERGENCE ON ENERGY      E(AU) -1.2207021766929E+03 CYCLES   8


 ENERGY EXPRESSION=HARTREE+FOCK EXCH*0.00000+(HSE-3c     EXCH)*1.00000+PBEh-3c    CORR


 TOTAL ENERGY(DFT)(AU)(  8) -1.2207021766929E+03 DE-1.4E-08 tester 3.1E-11
 TTTTTTTTTTTTTTTTTTTTTTTTTTTTTT EDFT        TELAPSE      333.94 TCPU      326.99
 
 INFORMATION **** DFTD3 ENERGY **** CALCULATE DFTD3 ENERGY

           DFT-D V3(BJ)
 DF                                         hse3c     
 parameters
 s6       :    1.0000
 s8       :    0.0000
 a1       :    0.4411
 a2       :    4.5182
 k1 k3    :   16.0000   -4.0000
 Cutoff   :   50.2022
 CN-Cutoff:   21.1671
 
 Edisp /kcal,au:   -32.1195 -0.05118562

 E6    /kcal :   -34.6284
 E8    /kcal :     0.0000
 E6(ABC) "   :   2.508953
 
 INFORMATION **** DFTD3 ENERGY **** NORMAL TERMINATION OF DFTD3 MODULE

 GCP ENERGY CALCULATION
  level           hse3c               basis:hse3c
  Nbf            304
  Atoms           48

  Parameters: 
  sigma     1.0000
  eta       1.4086
  alpha     0.2908
  beta      1.9526

  dmp_scal      4.0000
  dmp_exp       6.0000
 cutoffs: 
   distance [bohr] 60.0
   noise    [a.u.] 2.2E-16
 SR-damping   T
 ** gCP correction **
  Egcp:        0.1910811911 / (a.u.) ||     119.9053 / (kcal/mol)
 INFORMATION **** GCP **** NORMAL TERMINATION OF GCP MODULE

 *******************************************************************************

 DFT-D3-GCP DISPERSION AND COUNTERPOISE CORRECTION

 D3 DISPERSION ENERGY (AU)      -5.1185623202433E-02
 GCP ENERGY (AU)                 1.9108119111770E-01
 TOTAL ENERGY + DISP + GCP (AU) -1.2205622811250E+03

 *******************************************************************************

 EIGENVECTORS IN FORTRAN UNIT  8
 TTTTTTTTTTTTTTTTTTTTTTTTTTTTTT END         TELAPSE      336.75 TCPU      328.88
 EEEEEEEEEE TERMINATION  DATE 25 03 2019 TIME 17:55:34.4
NODE    0 CPU TIME =       328.880
NODE    1 CPU TIME =       336.223
NODE    2 CPU TIME =       333.027
NODE    3 CPU TIME =       336.181
NODE    4 CPU TIME =       334.553
NODE    5 CPU TIME =       336.116
NODE    6 CPU TIME =       333.945
NODE    7 CPU TIME =       336.052
    TOTAL CPU TIME =      2674.977
