 PROCESS            4  OF            8  WORKING
 PROCESS            0  OF            8  WORKING
 PROCESS            5  OF            8  WORKING
 PROCESS            1  OF            8  WORKING
 PROCESS            3  OF            8  WORKING
 PROCESS            2  OF            8  WORKING
 PROCESS            6  OF            8  WORKING
 PROCESS            7  OF            8  WORKING

         
 *******************************************************************************
 *                                                                             *
 *                               CRYSTAL17                                     *
 *                      public : 1.0.1 - Feb 1st, 2017                         *
 *                       HTTP://WWW.CRYSTAL.UNITO.IT                           *
 *                                                                             *
 *                              MAIN AUTHORS                                   *
 *                                                                             *
 *  R. DOVESI(1,11), V.R. SAUNDERS(2), C. ROETTI(1,11), R. ORLANDO(1,11),      *
 *  C.M. ZICOVICH-WILSON(1,3), F. PASCALE(4), B. CIVALLERI(1,11),              *
 *  K. DOLL(5), N.M. HARRISON(2,6), I.J. BUSH(7), Ph. D'ARCO(8),               *
 *  M. LLUNELL(9), M. CAUSA'(10), Y. NOEL(8), L. MASCHIO(1,11), A. ERBA(1,11)  *
 *  M. RE'RAT(14), S. CASASSA(1,11)                                            *
 *                                                                             *
 *        CONTRIBUTIONS TO THE CODE HAVE ALSO BEEN GIVEN BY                    *
 *                                                                             *
 *  M. FERRABONE(1,11), M. DE LA PIERRE(1,11), M. FERRERO(1,11),               *
 *  J. BAIMA(1,11), E. ALBANESE(1,11), M.F. PEINTINGER(12), R. BAST(13),       *
 *  B. KIRTMAN(15), V. LACIVITA(1,11), R. DEMICHELIS(1,16)                     *
 *  G. BRANDEBURG(17), S. SALUSTRO(1,11), G. SANSONE(1,11)                     *
 *  M.T. RUGGIERO(18)                                                          *
 *                                                                             *
 * (1) THEORETICAL CHEMISTRY GROUP - UNIVERSITA' DI TORINO - TORINO (ITALY)    *

 * (2) COMPUTATIONAL SCIENCE & ENGINEERING DEPARTMENT - STFC DARESBURY (UK)    *
 * (3) UNIVERSIDAD AUTONOMA DEL ESTADO DE MORELOS - CUERNAVACA (MEXICO)        *
 * (4) UNIVERSITE' DE LORRAINE - NANCY (FRANCE)                                *
 * (5) UNIVERSITAET STUTTGART- STUTTGART (GERMANY)                             *
 * (6) IMPERIAL COLLEGE - LONDON (UK)                                          *
 * (7) OXFORD E-RESEARCH CENTRE - OXFORD (UK)                                  *
 * (8) UPMC - SORBONNE UNIVERSITES - PARIS (FRANCE)                            *
 * (9) UNIVERSIDAD DE BARCELONA - BARCELONA (SPAIN)                            *
 *(10) UNIVERSITA' DI NAPOLI "FEDERICO II" - NAPOLI (ITALY)                    *
 *(11) NIS - NANOSTRUCTURED INTERFACES AND SURFACES - TORINO (ITALY)           *
 *(12) MPI FUER CHEMISCHE ENERGIEKONVERSION - MUELHEIM AN DER RUHR (GERMANY)   *
 *(13) UNIVERSITY OF TROMSO - TROMSO (NORWAY)                                  *
 *(14) UNIVERSITE' DE PAU ET DES PAYS DE L'ADOUR - PAU (FRANCE)                *
 *(15) UNIVERSITY OF CALIFORNIA SANTA BARBARA - SANTA BARBARA (USA)            *
 *(16) CURTIN UNIVERSITY - PERTH (AUSTRALIA)                                   *
 *(17) UNIVERSITY COLLEGE LONDON - LONDON (UK)                                 *
 *(18) CAMBRIDGE UNIVERSITY - CAMBRIDGE (UK)                                   *
 *                                                                             *
 *******************************************************************************
 EEEEEEEEEE STARTING  DATE 25 03 2019 TIME 17:52:40.7
 !drive by JGB                                                                   

 CRYSTAL CALCULATION
 (INPUT ACCORDING TO THE INTERNATIONAL TABLES FOR X-RAY CRYSTALLOGRAPHY)
 CRYSTAL FAMILY                       :  TETRAGONAL  
 CRYSTAL CLASS  (GROTH - 1921)        :  TETRAGONAL TRAPEZOHEDRAL             

 SPACE GROUP (NONCENTROSYMMETRIC)     :  P 41 21 2       

 LATTICE PARAMETERS  (ANGSTROMS AND DEGREES) - CONVENTIONAL CELL
        A           B           C        ALPHA        BETA       GAMMA
     6.51535     6.51535     6.88808    90.00000    90.00000    90.00000


 NUMBER OF IRREDUCIBLE ATOMS IN THE CONVENTIONAL CELL:    5

 INPUT COORDINATES

 ATOM AT. N.              COORDINATES
   1   8     3.847457600924E-01  1.903862185652E-01  7.747275189789E-01
   2   8     6.014543971841E-01  3.985456028159E-01  2.500000000000E-01
   3   1     5.093542187734E-01  1.589352476169E-01  6.994168437446E-01
   4   1     3.829229627625E-01  3.408856962485E-01  7.882786302577E-01
   5   1     6.955665097195E-01  3.639882018518E-01  1.428242435685E-01

 *******************************************************************************

 << INFORMATION >>: FROM NOW ON, ALL COORDINATES REFER TO THE PRIMITIVE CELL

 *******************************************************************************

 LATTICE PARAMETERS  (ANGSTROMS AND DEGREES) - PRIMITIVE CELL
       A          B          C        ALPHA      BETA     GAMMA        VOLUME
    6.51535    6.51535    6.88808    90.00000  90.00000  90.00000    292.397393

 COORDINATES OF THE EQUIVALENT ATOMS (FRACTIONAL UNITS)

 N. ATOM EQUIV AT. N.          X                  Y                  Z

   1   1   1    8 O     3.84745760092E-01  1.90386218565E-01 -2.25272481021E-01
   2   1   2    8 O    -3.84745760092E-01 -1.90386218565E-01  2.74727518979E-01
   3   1   3    8 O    -1.15254239908E-01  3.09613781435E-01 -2.47275189789E-02
   4   1   4    8 O     1.15254239908E-01 -3.09613781435E-01  4.75272481021E-01
   5   1   5    8 O    -1.90386218565E-01 -3.84745760092E-01 -2.74727518979E-01
   6   1   6    8 O     1.90386218565E-01  3.84745760092E-01  2.25272481021E-01
   7   1   7    8 O    -3.09613781435E-01  1.15254239908E-01 -4.75272481021E-01
   8   1   8    8 O     3.09613781435E-01 -1.15254239908E-01  2.47275189789E-02

   9   2   1    8 O    -3.98545602816E-01  3.98545602816E-01  2.50000000000E-01
  10   2   2    8 O     3.98545602816E-01 -3.98545602816E-01 -2.50000000000E-01
  11   2   3    8 O     1.01454397184E-01  1.01454397184E-01 -5.00000000000E-01
  12   2   4    8 O    -1.01454397184E-01 -1.01454397184E-01  0.00000000000E+00

  13   3   1    1 H    -4.90645781227E-01  1.58935247617E-01 -3.00583156255E-01
  14   3   2    1 H     4.90645781227E-01 -1.58935247617E-01  1.99416843745E-01
  15   3   3    1 H     9.35421877340E-03  3.41064752383E-01  5.05831562554E-02
  16   3   4    1 H    -9.35421877340E-03 -3.41064752383E-01 -4.49416843745E-01
  17   3   5    1 H    -1.58935247617E-01  4.90645781227E-01 -1.99416843745E-01
  18   3   6    1 H     1.58935247617E-01 -4.90645781227E-01  3.00583156255E-01
  19   3   7    1 H    -3.41064752383E-01 -9.35421877340E-03  4.49416843745E-01
  20   3   8    1 H     3.41064752383E-01  9.35421877340E-03 -5.05831562554E-02

  21   4   1    1 H     3.82922962762E-01  3.40885696249E-01 -2.11721369742E-01
  22   4   2    1 H    -3.82922962762E-01 -3.40885696249E-01  2.88278630258E-01
  23   4   3    1 H    -1.17077037238E-01  1.59114303751E-01 -3.82786302577E-02
  24   4   4    1 H     1.17077037238E-01 -1.59114303751E-01  4.61721369742E-01
  25   4   5    1 H    -3.40885696249E-01 -3.82922962762E-01 -2.88278630258E-01
  26   4   6    1 H     3.40885696249E-01  3.82922962762E-01  2.11721369742E-01
  27   4   7    1 H    -1.59114303751E-01  1.17077037238E-01 -4.61721369742E-01
  28   4   8    1 H     1.59114303751E-01 -1.17077037238E-01  3.82786302577E-02

  29   5   1    1 H    -3.04433490281E-01  3.63988201852E-01  1.42824243568E-01
  30   5   2    1 H     3.04433490281E-01 -3.63988201852E-01 -3.57175756432E-01
  31   5   3    1 H     1.95566509719E-01  1.36011798148E-01 -3.92824243568E-01
  32   5   4    1 H    -1.95566509719E-01 -1.36011798148E-01  1.07175756432E-01
  33   5   5    1 H    -3.63988201852E-01  3.04433490281E-01  3.57175756432E-01
  34   5   6    1 H     3.63988201852E-01 -3.04433490281E-01 -1.42824243568E-01
  35   5   7    1 H    -1.36011798148E-01 -1.95566509719E-01 -1.07175756432E-01
  36   5   8    1 H     1.36011798148E-01  1.95566509719E-01  3.92824243568E-01

 NUMBER OF SYMMETRY OPERATORS         :    8
 *******************************************************************************
 * GEOMETRY EDITING - INPUT COORDINATES ARE GIVEN IN ANGSTROM         
 *******************************************************************************

 GEOMETRY NOW FULLY CONSISTENT WITH THE GROUP

 GCALCO - MAX INDICES DIRECT LATTICE VECTOR    15    15    14
 NO.OF VECTORS CREATED 6999 STARS  515 RMAX   148.76916 BOHR

 GEOMETRY FOR WAVE FUNCTION - DIMENSIONALITY OF THE SYSTEM    3
 (NON PERIODIC DIRECTION: LATTICE PARAMETER FORMALLY SET TO 500)
 *******************************************************************************
 LATTICE PARAMETERS (ANGSTROMS AND DEGREES) - BOHR = 0.5291772083 ANGSTROM
 PRIMITIVE CELL - CENTRING CODE 1/0 VOLUME=   292.397393 - DENSITY  1.227 g/cm^3
         A              B              C           ALPHA      BETA       GAMMA 
     6.51534809     6.51534809     6.88808106    90.000000  90.000000  90.000000
 *******************************************************************************
 ATOMS IN THE ASYMMETRIC UNIT    5 - ATOMS IN THE UNIT CELL:   36
     ATOM                 X/A                 Y/B                 Z/C    
 *******************************************************************************
      1 T   8 O     3.847457600924E-01  1.903862185652E-01 -2.252724810211E-01
      2 F   8 O    -3.847457600924E-01 -1.903862185652E-01  2.747275189789E-01
      3 F   8 O    -1.152542399076E-01  3.096137814348E-01 -2.472751897890E-02
      4 F   8 O     1.152542399076E-01 -3.096137814348E-01  4.752724810211E-01
      5 F   8 O    -1.903862185652E-01 -3.847457600924E-01 -2.747275189789E-01
      6 F   8 O     1.903862185652E-01  3.847457600924E-01  2.252724810211E-01
      7 F   8 O    -3.096137814348E-01  1.152542399076E-01 -4.752724810211E-01
      8 F   8 O     3.096137814348E-01 -1.152542399076E-01  2.472751897890E-02
      9 T   8 O    -3.985456028159E-01  3.985456028159E-01  2.500000000000E-01
     10 F   8 O     3.985456028159E-01 -3.985456028159E-01 -2.500000000000E-01
     11 F   8 O     1.014543971841E-01  1.014543971841E-01 -5.000000000000E-01
     12 F   8 O    -1.014543971841E-01 -1.014543971841E-01  0.000000000000E+00
     13 T   1 H    -4.906457812266E-01  1.589352476169E-01 -3.005831562554E-01
     14 F   1 H     4.906457812266E-01 -1.589352476169E-01  1.994168437446E-01
     15 F   1 H     9.354218773400E-03  3.410647523831E-01  5.058315625540E-02
     16 F   1 H    -9.354218773400E-03 -3.410647523831E-01 -4.494168437446E-01
     17 F   1 H    -1.589352476169E-01  4.906457812266E-01 -1.994168437446E-01
     18 F   1 H     1.589352476169E-01 -4.906457812266E-01  3.005831562554E-01
     19 F   1 H    -3.410647523831E-01 -9.354218773400E-03  4.494168437446E-01
     20 F   1 H     3.410647523831E-01  9.354218773400E-03 -5.058315625540E-02
     21 T   1 H     3.829229627625E-01  3.408856962485E-01 -2.117213697423E-01
     22 F   1 H    -3.829229627625E-01 -3.408856962485E-01  2.882786302577E-01
     23 F   1 H    -1.170770372375E-01  1.591143037515E-01 -3.827863025770E-02
     24 F   1 H     1.170770372375E-01 -1.591143037515E-01  4.617213697423E-01
     25 F   1 H    -3.408856962485E-01 -3.829229627625E-01 -2.882786302577E-01
     26 F   1 H     3.408856962485E-01  3.829229627625E-01  2.117213697423E-01
     27 F   1 H    -1.591143037515E-01  1.170770372375E-01 -4.617213697423E-01
     28 F   1 H     1.591143037515E-01 -1.170770372375E-01  3.827863025770E-02
     29 T   1 H    -3.044334902805E-01  3.639882018518E-01  1.428242435685E-01
     30 F   1 H     3.044334902805E-01 -3.639882018518E-01 -3.571757564315E-01
     31 F   1 H     1.955665097195E-01  1.360117981482E-01 -3.928242435685E-01
     32 F   1 H    -1.955665097195E-01 -1.360117981482E-01  1.071757564315E-01
     33 F   1 H    -3.639882018518E-01  3.044334902805E-01  3.571757564315E-01
     34 F   1 H     3.639882018518E-01 -3.044334902805E-01 -1.428242435685E-01
     35 F   1 H    -1.360117981482E-01 -1.955665097195E-01 -1.071757564315E-01
     36 F   1 H     1.360117981482E-01  1.955665097195E-01  3.928242435685E-01

 T = ATOM BELONGING TO THE ASYMMETRIC UNIT

 ****    8 SYMMOPS - TRANSLATORS IN FRACTIONAL UNITS
 **** MATRICES AND TRANSLATORS IN THE CRYSTALLOGRAPHIC REFERENCE FRAME
   V INV                    ROTATION MATRICES                   TRANSLATORS
   1   1  1.00  0.00  0.00  0.00  1.00  0.00  0.00  0.00  1.00  0.00  0.00  0.00
   2   2 -1.00  0.00  0.00  0.00 -1.00  0.00  0.00  0.00  1.00  0.00  0.00  0.50
   3   3  1.00  0.00  0.00  0.00 -1.00  0.00  0.00  0.00 -1.00  0.50  0.50  0.75
   4   4 -1.00  0.00  0.00  0.00  1.00  0.00  0.00  0.00 -1.00  0.50  0.50  0.25
   5   5  0.00 -1.00  0.00 -1.00  0.00  0.00  0.00  0.00 -1.00  0.00  0.00  0.50
   6   6  0.00  1.00  0.00  1.00  0.00  0.00  0.00  0.00 -1.00  0.00  0.00  0.00
   7   8  0.00  1.00  0.00 -1.00  0.00  0.00  0.00  0.00  1.00  0.50  0.50  0.75
   8   7  0.00 -1.00  0.00  1.00  0.00  0.00  0.00  0.00  1.00  0.50  0.50  0.25

 DIRECT LATTICE VECTORS CARTESIAN COMPONENTS (ANGSTROM)
          X                    Y                    Z
   0.651534809000E+01   0.000000000000E+00   0.000000000000E+00
   0.000000000000E+00   0.651534809000E+01   0.000000000000E+00
   0.000000000000E+00   0.000000000000E+00   0.688808106000E+01


 CARTESIAN COORDINATES - PRIMITIVE CELL
 *******************************************************************************
 *      ATOM          X(ANGSTROM)         Y(ANGSTROM)         Z(ANGSTROM)
 *******************************************************************************
    1     8 O     2.506752553154E+00  1.240432485491E+00 -1.551695109861E+00
    2     8 O    -2.506752553154E+00 -1.240432485491E+00  1.892345420139E+00
    3     8 O    -7.509214918464E-01  2.017241559509E+00 -1.703251551394E-01
    4     8 O     7.509214918464E-01 -2.017241559509E+00  3.273715374861E+00
    5     8 O    -1.240432485491E+00 -2.506752553154E+00 -1.892345420139E+00
    6     8 O     1.240432485491E+00  2.506752553154E+00  1.551695109861E+00
    7     8 O    -2.017241559509E+00  7.509214918464E-01 -3.273715374861E+00
    8     8 O     2.017241559509E+00 -7.509214918464E-01  1.703251551394E-01
    9     8 O    -2.596663332084E+00  2.596663332084E+00  1.722020265000E+00
   10     8 O     2.596663332084E+00 -2.596663332084E+00 -1.722020265000E+00
   11     8 O     6.610107129155E-01  6.610107129155E-01  3.444040530000E+00
   12     8 O    -6.610107129155E-01 -6.610107129155E-01  0.000000000000E+00
   13     1 H    -3.196728053581E+00  1.035518461994E+00 -2.070441145558E+00
   14     1 H     3.196728053581E+00 -1.035518461994E+00  1.373599384442E+00
   15     1 H     6.094599141871E-02  2.222155583006E+00  3.484208805578E-01
   16     1 H    -6.094599141871E-02 -2.222155583006E+00 -3.095619649442E+00
   17     1 H    -1.035518461994E+00  3.196728053581E+00 -1.373599384442E+00
   18     1 H     1.035518461994E+00 -3.196728053581E+00  2.070441145558E+00
   19     1 H    -2.222155583006E+00 -6.094599141871E-02  3.095619649442E+00
   20     1 H     2.222155583006E+00  6.094599141871E-02 -3.484208805578E-01
   21     1 H     2.494876394052E+00  2.220988969961E+00 -1.458353956919E+00
   22     1 H    -2.494876394052E+00 -2.220988969961E+00  1.985686573081E+00
   23     1 H    -7.627976509482E-01  1.036685075039E+00 -2.636663080808E-01
   24     1 H     7.627976509482E-01 -1.036685075039E+00  3.180374221919E+00
   25     1 H    -2.220988969961E+00 -2.494876394052E+00 -1.985686573081E+00
   26     1 H     2.220988969961E+00  2.494876394052E+00  1.458353956919E+00
   27     1 H    -1.036685075039E+00  7.627976509482E-01 -3.180374221919E+00
   28     1 H     1.036685075039E+00 -7.627976509482E-01  2.636663080808E-01
   29     1 H    -1.983490159431E+00  2.371509835718E+00  9.837849670330E-01
   30     1 H     1.983490159431E+00 -2.371509835718E+00 -2.460255562967E+00
   31     1 H     1.274183885569E+00  8.861642092823E-01 -2.705805232033E+00
   32     1 H    -1.274183885569E+00 -8.861642092823E-01  7.382352979670E-01
   33     1 H    -2.371509835718E+00  1.983490159431E+00  2.460255562967E+00
   34     1 H     2.371509835718E+00 -1.983490159431E+00 -9.837849670330E-01
   35     1 H    -8.861642092823E-01 -1.274183885569E+00 -7.382352979670E-01
   36     1 H     8.861642092823E-01  1.274183885569E+00  2.705805232033E+00

 *******************************************************************************
 STARTING BASIS SET HANDLING 
 *******************************************************************************

 Loading internal basis set: DEF2-MSVP           

 Please cite in your publication:
 Fully Optimized Contracted Gaussian Basis Sets for Atoms Li to Kr. A. Schäfer, 
 H. Horn and R. Ahlrichs; J. Chem. Phys. 97, 2571 (1992).                       
                                                                                
                    
 S. Grimme, J. G. Brandenburg, C. Bannwarth, and A. Hansen, J. Chem. Phys., 143,
  054107 (2015).                                                                
                                                                                
                    

 *******************************************************************************
 LOCAL ATOMIC FUNCTIONS BASIS SET
 *******************************************************************************
   ATOM   X(AU)   Y(AU)   Z(AU)  N. TYPE  EXPONENT  S COEF   P COEF   D/F/G COEF
 *******************************************************************************
   1 O    4.737   2.344  -2.932
                                  1 S  
                                         6.773E+03 1.727E-03 0.000E+00 0.000E+00
                                         1.017E+03 1.325E-02 0.000E+00 0.000E+00
                                         2.313E+02 6.603E-02 0.000E+00 0.000E+00
                                         6.501E+01 2.353E-01 0.000E+00 0.000E+00
                                         2.050E+01 5.498E-01 0.000E+00 0.000E+00
                                  2 S  
                                         6.716E+00 1.000E+00 0.000E+00 0.000E+00
                                  3 S  
                                         1.147E+00 1.000E+00 0.000E+00 0.000E+00
                                  4 S  
                                         3.342E-01 1.000E+00 0.000E+00 0.000E+00
                           5-     7 P  
                                         1.769E+01 0.000E+00 4.359E-02 0.000E+00
                                         3.854E+00 0.000E+00 2.318E-01 0.000E+00
                                         1.047E+00 0.000E+00 5.146E-01 0.000E+00
                           8-    10 P  
                                         2.759E-01 0.000E+00 1.000E+00 0.000E+00
                          11-    15 D  
                                         8.000E-01 0.000E+00 0.000E+00 1.000E+00
   2 O   -4.737  -2.344   3.576
   3 O   -1.419   3.812  -0.322
   4 O    1.419  -3.812   6.186
   5 O   -2.344  -4.737  -3.576
   6 O    2.344   4.737   2.932
   7 O   -3.812   1.419  -6.186
   8 O    3.812  -1.419   0.322
   9 O   -4.907   4.907   3.254
  10 O    4.907  -4.907  -3.254
  11 O    1.249   1.249   6.508
  12 O   -1.249  -1.249   0.000
  13 H   -6.041   1.957  -3.913
                                181 S  
                                         1.874E+01 1.968E-02 0.000E+00 0.000E+00
                                         2.826E+00 1.380E-01 0.000E+00 0.000E+00
                                         6.401E-01 4.783E-01 0.000E+00 0.000E+00
                                182 S  
                                         1.756E-01 1.000E+00 0.000E+00 0.000E+00
  14 H    6.041  -1.957   2.596
  15 H    0.115   4.199   0.658
  16 H   -0.115  -4.199  -5.850
  17 H   -1.957   6.041  -2.596
  18 H    1.957  -6.041   3.913
  19 H   -4.199  -0.115   5.850
  20 H    4.199   0.115  -0.658
  21 H    4.715   4.197  -2.756
  22 H   -4.715  -4.197   3.752
  23 H   -1.441   1.959  -0.498
  24 H    1.441  -1.959   6.010
  25 H   -4.197  -4.715  -3.752
  26 H    4.197   4.715   2.756
  27 H   -1.959   1.441  -6.010
  28 H    1.959  -1.441   0.498
  29 H   -3.748   4.482   1.859
  30 H    3.748  -4.482  -4.649
  31 H    2.408   1.675  -5.113
  32 H   -2.408  -1.675   1.395
  33 H   -4.482   3.748   4.649
  34 H    4.482  -3.748  -1.859
  35 H   -1.675  -2.408  -1.395
  36 H    1.675   2.408   5.113

 *******************************************************************************
 FINISHED BASIS SET HANDLING 
 *******************************************************************************

 INFORMATION **** SET_MPP **** PCRYSTAL CALCULATION
 INFORMATION **** READM2 **** NEW DEFAULT: FOCK/KS MATRIX MIXING SET TO 30 %
 INFORMATION **** READM2 **** NEW DEFAULT: FULL DIRECT SCF MODE
 INFORMATION **** READM2 **** NEW DEFAULT: COULOMB BIPOLAR BUFFER SET TO 32 Mb
 INFORMATION **** READM2 **** NEW DEFAULT: EXCHANGE BIPOLAR BUFFER SET TO 32 Mb

 *******************************************************************************
 NEW DEFAULT: DFT INTEGRATION GRID INCREASED TO XLGRID
 NEW DEFAULT: DIIS ACCELERATOR ACTIVE
 USE KEYWORD NODIIS TO TURN IT OFF
 *******************************************************************************

 INFORMATION **** RDDFTP **** HSE-3c calculation
 INFORMATION **** RDDFTP **** HSE screened hybrid functional combined with D3 and gCP

PLEASE CITE:
(1) HSE-3c Reference
 J. G. Brandenburg, E. Caldeweyer, and S. Grimme, 
 Phys. Chem. Chem. Phys. 18, 15519 (2016)
(2) DFT-D3 Reference
 S. Grimme, J. Antony, S. Ehrlich,
 and H. Krieg, J. Chem. Phys. 132, 154104 (2010)
(3) gCP Reference
 H. Kruse and S. Grimme J. Chem. Phys, 136, 154101 (2012)
 J. G. Brandenburg, M. Alessio, B. Civalleri, M. F. Peintinger
 T. Bredow, and S. Grimme, J. Phys. Chem. A, 117, 9282 (2013) 

 WARNING **** RDDFTP **** HSE3c-HJS ACTIVE
 RANGE SEPARATION - OMEGA:   0.110000000000000     
 WARNING **** RDDFTP **** HSE-3c has to be combined with def2-mSVP basis set
 WARNING **** RDDFTP **** Note: Harmonic frequencies are scaled by 0.95
 WARNING **** RDDFTP **** as recommended in original publication
 INFORMATION **** BIPOSIZE **** COULOMB BIPOLAR BUFFER SET TO    60000000
 INFORMATION **** EXCHSIZE **** EXCHANGE BIPOLAR BUFFER SIZE SET TO    40000000
 *******************************************************************************
 N. OF ATOMS PER CELL        36  COULOMB OVERLAP TOL         (T1) 10**   -6
 NUMBER OF SHELLS           132  COULOMB PENETRATION TOL     (T2) 10**   -6
 NUMBER OF AO               228  EXCHANGE OVERLAP TOL        (T3) 10**   -6
 N. OF ELECTRONS PER CELL   120  EXCHANGE PSEUDO OVP (F(G))  (T4) 10**   -6
 CORE ELECTRONS PER CELL     24  EXCHANGE PSEUDO OVP (P(G))  (T5) 10**  -12
 N. OF SYMMETRY OPERATORS     8  POLE ORDER IN MONO ZONE                  4
 *******************************************************************************
 TYPE OF CALCULATION :  RESTRICTED CLOSED SHELL
 KOHN-SHAM HAMILTONIAN

 (EXCHANGE)[CORRELATION] FUNCTIONAL:(HSE-3c)[PBEh-3c]

 RANGE-SEPARATED HYBRID FUNCTIONAL 
 OMEGA (SHORT-RANGE)[LONG-RANGE]:(    0.1100)[    0.0000]

 HYBRID EXCHANGE - PERCENTAGE OF FOCK EXCHANGE    42.0000

 CAPPA:IS1  2;IS2  2;IS3  2; K PTS MONK NET   6; SYMMOPS:K SPACE  16;G SPACE   8

 *******************************************************************************
 MAX NUMBER OF SCF CYCLES      50  CONVERGENCE ON DELTAP        10**-16
 WEIGHT OF F(I) IN F(I+1)      30% CONVERGENCE ON ENERGY        10**- 6
 S(K) EIGENV. THRESHOLD  10*10.**-4
 SHRINK. FACT.(MONKH.)    2  2  2  NUMBER OF K POINTS IN THE IBZ      6
 SHRINKING FACTOR(GILAT NET)    2  NUMBER OF K POINTS(GILAT NET)      6
 *******************************************************************************
 *** K POINTS COORDINATES (OBLIQUE COORDINATES IN UNITS OF IS =  2)
   1-R(  0  0  0)   2-R(  1  0  0)   3-R(  1  1  0)   4-R(  0  0  1)
   5-R(  1  0  1)   6-R(  1  1  1)

 DIRECT LATTICE VECTORS COMPON. (A.U.)     RECIP. LATTICE VECTORS COMPON. (A.U.) 
        X            Y            Z              X            Y            Z
   12.3122236    0.0000000    0.0000000      0.5103209    0.0000000    0.0000000
    0.0000000   12.3122236    0.0000000      0.0000000    0.5103209    0.0000000
    0.0000000    0.0000000   13.0165868      0.0000000    0.0000000    0.4827061

 DISK SPACE FOR EIGENVECTORS (FTN 10)      311904 REALS

 SYMMETRY ADAPTION OF THE BLOCH FUNCTIONS ENABLED
 TTTTTTTTTTTTTTTTTTTTTTTTTTTTTT gordsh1     TELAPSE        0.32 TCPU        0.05

 MATRIX SIZE: P(G)  142860, F(G)   26036, P(G) IRR    9527, F(G) IRR    3452
 MAX G-VECTOR INDEX FOR 1- AND 2-ELECTRON INTEGRALS  81

 TTTTTTTTTTTTTTTTTTTTTTTTTTTTTT INPUT       TELAPSE        0.32 TCPU        0.05

 NEIGHBORS OF THE NON-EQUIVALENT ATOMS

 N = NUMBER OF NEIGHBORS AT DISTANCE R
    ATOM  N     R/ANG      R/AU   NEIGHBORS (ATOM LABELS AND CELL INDICES)
   1 O    1     0.9850     1.8614   13 H    1 0 0
   1 O    1     0.9851     1.8615   21 H    0 0 0
   1 O    1     1.7088     3.2292   20 H    0 0 0
   1 O    1     1.7253     3.2604   31 H    0 0 0
   1 O    2     2.6778     5.0603    7 O    1 0 0    8 O    0 0 0
   1 O    1     2.6852     5.0742   10 O    0 1 0

   9 O    2     0.9857     1.8628   29 H    0 0 0   33 H    0 0 0
   9 O    2     1.7211     3.2523   22 H    0 1 0   26 H   -1 0 0
   9 O    2     2.6852     5.0742    2 O    0 1 0    6 O   -1 0 0
   9 O    2     2.7062     5.1140    3 O    0 0 0    7 O    0 0 1
   9 O    2     2.9925     5.6551   14 H   -1 1 0   18 H   -1 1 0
   9 O    2     3.0149     5.6974   15 H    0 0 0   19 H    0 0 0

  13 H    1     0.9850     1.8614    1 O   -1 0 0
  13 H    1     1.5680     2.9630   21 H   -1 0 0
  13 H    1     1.7088     3.2292    7 O    0 0 0
  13 H    1     2.1461     4.0555   31 H   -1 0 0
  13 H    2     2.2622     4.2749   19 H    0 0-1   20 H   -1 0 0
  13 H    1     2.4438     4.6181   27 H    0 0 0

  21 H    1     0.9851     1.8615    1 O    0 0 0
  21 H    1     1.5680     2.9630   13 H    1 0 0
  21 H    1     1.7211     3.2523   10 O    0 1 0
  21 H    1     2.1973     4.1522   31 H    0 0 0
  21 H    1     2.2277     4.2098   30 H    0 1 0
  21 H    1     2.3623     4.4641   34 H    0 1 0

  29 H    1     0.9857     1.8628    9 O    0 0 0
  29 H    1     1.5751     2.9766   33 H    0 0 0
  29 H    1     1.7253     3.2604    3 O    0 0 0
  29 H    1     2.1461     4.0555   15 H    0 0 0
  29 H    1     2.1973     4.1522   23 H    0 0 0
  29 H    1     2.2277     4.2098   22 H    0 1 0


 SYMMETRY ALLOWED INTERNAL DEGREE(S) OF FREEDOM:  13
 TTTTTTTTTTTTTTTTTTTTTTTTTTTTTT SYMM        TELAPSE        0.37 TCPU        0.09
 TTTTTTTTTTTTTTTTTTTTTTTTTTTTTT INT_SCREEN  TELAPSE        0.38 TCPU        0.09

 DFT PARAMETERS

     ATOM       ELECTRONS   NET CHARGE   R(ANGSTROM)
   1   8  O       8.0000      0.0000     0.74000000
  13   1  H       1.0000      0.0000     1.11000000

 SIZE OF GRID=      98556
 TTTTTTTTTTTTTTTTTTTTTTTTTTTTTT MAKE_GRID2  TELAPSE        2.89 TCPU        2.60
 BECKE WEIGHT FUNCTION
 RADSAFE =     2.00
 TOLERANCES - DENSITY:10**- 6; POTENTIAL:10**- 9; GRID WGT:10**-14

 RADIAL INTEGRATION  - INTERVALS (POINTS,UPPER LIMIT):            1( 75,  4.0*R)

 ANGULAR INTEGRATION - INTERVALS (ACCURACY LEVEL [N. POINTS] UPPER LIMIT):
  1(  4[  86]   0.2)  2(  8[ 194]   0.5)  3( 12[ 350]   0.9)  4( 16[ 974]   3.5)
  5( 12[ 350]9999.0)
 TTTTTTTTTTTTTTTTTTTTTTTTTTTTTT INT_CALC    TELAPSE        2.91 TCPU        2.62
 EEEEEEEEEE INT_CALC TERMINATION  DATE 25 03 2019 TIME 17:52:43.5

 *******************************************************************************
 !drive by JGB                                                                   
 CRYSTAL - SCF - TYPE OF CALCULATION :  RESTRICTED CLOSED SHELL
 *******************************************************************************

 CAPPA:IS1  2;IS2  2;IS3  2; K PTS MONK NET   6; SYMMOPS:K SPACE  16;G SPACE   8

 TTTTTTTTTTTTTTTTTTTTTTTTTTTTTT SDIK        TELAPSE        2.95 TCPU        2.66

 AAAAAAAAAAAAAAAAAAAAAAAAAAAAAAAAAAAAAAAAAAAAAAAAAAAAAAAAAAAAAAAAAAAAAAAAAAAAAAA
         ATOMIC WAVEFUNCTION(S)


 NUCLEAR CHARGE  8.0  SYMMETRY SPECIES            S    P
 N. ELECTRONS    8.0  NUMBER OF PRIMITIVE GTOS    8    4
                      NUMBER OF CONTRACTED GTOS   4    2
                      NUMBER OF CLOSED SHELLS     2    0
                      OPEN SHELL OCCUPATION       0    4

  ZNUC SCFIT  TOTAL HF ENERGY   KINETIC ENERGY   VIRIAL THEOREM ACCURACY
   8.0  12   -7.477373220E+01  7.477365593E+01 -2.000001020E+00  3.8E-06

 NUCLEAR CHARGE  1.0  SYMMETRY SPECIES            S
 N. ELECTRONS    1.0  NUMBER OF PRIMITIVE GTOS    4
                      NUMBER OF CONTRACTED GTOS   2
                      NUMBER OF CLOSED SHELLS     0
                      OPEN SHELL OCCUPATION       1

  ZNUC SCFIT  TOTAL HF ENERGY   KINETIC ENERGY   VIRIAL THEOREM ACCURACY
   1.0   1   -4.977266687E-01  5.190767460E-01 -1.958869132E+00  1.8E-16

 AAAAAAAAAAAAAAAAAAAAAAAAAAAAAAAAAAAAAAAAAAAAAAAAAAAAAAAAAAAAAAAAAAAAAAAAAAAAAAA

 CHARGE NORMALIZATION FACTOR   1.00000000
 TOTAL ATOMIC CHARGES:
   8.0000000   8.0000000   8.0000000   8.0000000   8.0000000   8.0000000
   8.0000000   8.0000000   8.0000000   8.0000000   8.0000000   8.0000000
   1.0000000   1.0000000   1.0000000   1.0000000   1.0000000   1.0000000
   1.0000000   1.0000000   1.0000000   1.0000000   1.0000000   1.0000000
   1.0000000   1.0000000   1.0000000   1.0000000   1.0000000   1.0000000
   1.0000000   1.0000000   1.0000000   1.0000000   1.0000000   1.0000000
 TTTTTTTTTTTTTTTTTTTTTTTTTTTTTT MOQGAD      TELAPSE        3.09 TCPU        2.79
 TTTTTTTTTTTTTTTTTTTTTTTTTTTTTT SHELLXN     TELAPSE        6.33 TCPU        6.02
 TTTTTTTTTTTTTTTTTTTTTTTTTTTTTT MONMO3      TELAPSE        9.74 TCPU        9.43
 NUMERICALLY INTEGRATED DENSITY    120.0000118620
 TTTTTTTTTTTTTTTTTTTTTTTTTTTTTT NUMDFT      TELAPSE        9.97 TCPU        9.65
 CYC   0 ETOT(AU) -9.159648086578E+02 DETOT -9.16E+02 tst  0.00E+00 PX  1.00E+00
 TTTTTTTTTTTTTTTTTTTTTTTTTTTTTT DIIS        TELAPSE        9.97 TCPU        9.66
 TTTTTTTTTTTTTTTTTTTTTTTTTTTTTT FDIK        TELAPSE       10.12 TCPU        9.68
 INSULATING STATE
 TOP OF VALENCE BANDS -    BAND     60; K    1; EIG -4.1548429E-01 AU
 BOTTOM OF VIRTUAL BANDS - BAND     61; K    1; EIG -8.5362799E-02 AU
 DIRECT ENERGY BAND GAP:   8.9831 eV
 TTTTTTTTTTTTTTTTTTTTTTTTTTTTTT PDIG        TELAPSE       10.13 TCPU        9.68
 CHARGE NORMALIZATION FACTOR   1.00000000
 TOTAL ATOMIC CHARGES:
   9.0719865   9.0719865   9.0719865   9.0719865   9.0719865   9.0719865
   9.0719865   9.0719865   9.0778482   9.0778482   9.0778482   9.0778482
   0.4607021   0.4607021   0.4607021   0.4607021   0.4607021   0.4607021
   0.4607021   0.4607021   0.4600861   0.4600861   0.4600861   0.4600861
   0.4600861   0.4600861   0.4600861   0.4600861   0.4683012   0.4683012
   0.4683012   0.4683012   0.4683012   0.4683012   0.4683012   0.4683012
 TTTTTTTTTTTTTTTTTTTTTTTTTTTTTT MOQGAD      TELAPSE       10.14 TCPU        9.69
 TTTTTTTTTTTTTTTTTTTTTTTTTTTTTT SHELLXN     TELAPSE       13.44 TCPU       12.99
 TTTTTTTTTTTTTTTTTTTTTTTTTTTTTT MONMO3      TELAPSE       14.15 TCPU       13.70
 NUMERICALLY INTEGRATED DENSITY    120.0000092390
 TTTTTTTTTTTTTTTTTTTTTTTTTTTTTT NUMDFT      TELAPSE       14.62 TCPU       14.17
 CYC   1 ETOT(AU) -9.152751630792E+02 DETOT  6.90E-01 tst  0.00E+00 PX  1.00E+00
 TTTTTTTTTTTTTTTTTTTTTTTTTTTTTT DIIS        TELAPSE       14.67 TCPU       14.22
 DIIS TEST: 0.87905E+00 AT SCF   CYCLE   1 - MIX   30 %
 TTTTTTTTTTTTTTTTTTTTTTTTTTTTTT FDIK        TELAPSE       14.68 TCPU       14.22
 INSULATING STATE
 TOP OF VALENCE BANDS -    BAND     60; K    1; EIG -3.1969676E-01 AU
 BOTTOM OF VIRTUAL BANDS - BAND     61; K    1; EIG -2.5489658E-02 AU
 DIRECT ENERGY BAND GAP:   8.0058 eV
 TTTTTTTTTTTTTTTTTTTTTTTTTTTTTT PDIG        TELAPSE       14.68 TCPU       14.23
 CHARGE NORMALIZATION FACTOR   1.00000000
 TOTAL ATOMIC CHARGES:
   8.8672717   8.8672717   8.8672717   8.8672717   8.8672717   8.8672717
   8.8672717   8.8672717   8.8715152   8.8715152   8.8715152   8.8715152
   0.5603077   0.5603077   0.5603077   0.5603077   0.5603077   0.5603077
   0.5603077   0.5603077   0.5619013   0.5619013   0.5619013   0.5619013
   0.5619013   0.5619013   0.5619013   0.5619013   0.5747616   0.5747616
   0.5747616   0.5747616   0.5747616   0.5747616   0.5747616   0.5747616
 TTTTTTTTTTTTTTTTTTTTTTTTTTTTTT MOQGAD      TELAPSE       14.68 TCPU       14.23
 TTTTTTTTTTTTTTTTTTTTTTTTTTTTTT SHELLXN     TELAPSE       17.98 TCPU       17.53
 TTTTTTTTTTTTTTTTTTTTTTTTTTTTTT MONMO3      TELAPSE       18.69 TCPU       18.24
 NUMERICALLY INTEGRATED DENSITY    120.0000123760
 TTTTTTTTTTTTTTTTTTTTTTTTTTTTTT NUMDFT      TELAPSE       19.16 TCPU       18.71
 CYC   2 ETOT(AU) -9.155187638687E+02 DETOT -2.44E-01 tst  2.77E-03 PX  1.17E-01
 TTTTTTTTTTTTTTTTTTTTTTTTTTTTTT DIIS        TELAPSE       19.18 TCPU       18.73
 DIIS TEST: 0.18447E+00 AT SCF   CYCLE   2 - DIIS ACTIVE - HISTORY:     2 CYCLES
 TTTTTTTTTTTTTTTTTTTTTTTTTTTTTT FDIK        TELAPSE       19.20 TCPU       18.73
 INSULATING STATE
 TOP OF VALENCE BANDS -    BAND     60; K    1; EIG -3.6366432E-01 AU
 BOTTOM OF VIRTUAL BANDS - BAND     61; K    1; EIG -2.7373525E-02 AU
 DIRECT ENERGY BAND GAP:   9.1509 eV
 TTTTTTTTTTTTTTTTTTTTTTTTTTTTTT PDIG        TELAPSE       19.21 TCPU       18.74
 CHARGE NORMALIZATION FACTOR   1.00000000
 TOTAL ATOMIC CHARGES:
   8.9388068   8.9388068   8.9388068   8.9388068   8.9388068   8.9388068
   8.9388068   8.9388068   8.9421397   8.9421397   8.9421397   8.9421397
   0.5258258   0.5258258   0.5258258   0.5258258   0.5258258   0.5258258
   0.5258258   0.5258258   0.5262671   0.5262671   0.5262671   0.5262671
   0.5262671   0.5262671   0.5262671   0.5262671   0.5380305   0.5380305
   0.5380305   0.5380305   0.5380305   0.5380305   0.5380305   0.5380305
 TTTTTTTTTTTTTTTTTTTTTTTTTTTTTT MOQGAD      TELAPSE       19.21 TCPU       18.74
 TTTTTTTTTTTTTTTTTTTTTTTTTTTTTT SHELLXN     TELAPSE       22.52 TCPU       22.05
 TTTTTTTTTTTTTTTTTTTTTTTTTTTTTT MONMO3      TELAPSE       23.28 TCPU       22.81
 NUMERICALLY INTEGRATED DENSITY    120.0000112402
 TTTTTTTTTTTTTTTTTTTTTTTTTTTTTT NUMDFT      TELAPSE       23.75 TCPU       23.29
 CYC   3 ETOT(AU) -9.155834885671E+02 DETOT -6.47E-02 tst  2.72E-04 PX  4.04E-02
 TTTTTTTTTTTTTTTTTTTTTTTTTTTTTT DIIS        TELAPSE       23.76 TCPU       23.29
 DIIS TEST: 0.44736E-03 AT SCF   CYCLE   3 - DIIS ACTIVE - HISTORY:     3 CYCLES
 TTTTTTTTTTTTTTTTTTTTTTTTTTTTTT FDIK        TELAPSE       23.77 TCPU       23.29
 INSULATING STATE
 TOP OF VALENCE BANDS -    BAND     60; K    1; EIG -3.6157697E-01 AU
 BOTTOM OF VIRTUAL BANDS - BAND     61; K    1; EIG -2.5248934E-02 AU
 DIRECT ENERGY BAND GAP:   9.1520 eV
 TTTTTTTTTTTTTTTTTTTTTTTTTTTTTT PDIG        TELAPSE       23.78 TCPU       23.30
 CHARGE NORMALIZATION FACTOR   1.00000000
 TOTAL ATOMIC CHARGES:
   8.9362419   8.9362419   8.9362419   8.9362419   8.9362419   8.9362419
   8.9362419   8.9362419   8.9412890   8.9412890   8.9412890   8.9412890
   0.5270798   0.5270798   0.5270798   0.5270798   0.5270798   0.5270798
   0.5270798   0.5270798   0.5273803   0.5273803   0.5273803   0.5273803
   0.5273803   0.5273803   0.5273803   0.5273803   0.5386535   0.5386535
   0.5386535   0.5386535   0.5386535   0.5386535   0.5386535   0.5386535
 TTTTTTTTTTTTTTTTTTTTTTTTTTTTTT MOQGAD      TELAPSE       23.78 TCPU       23.30
 TTTTTTTTTTTTTTTTTTTTTTTTTTTTTT SHELLXN     TELAPSE       27.09 TCPU       26.60
 TTTTTTTTTTTTTTTTTTTTTTTTTTTTTT MONMO3      TELAPSE       27.80 TCPU       27.32
 NUMERICALLY INTEGRATED DENSITY    120.0000112796
 TTTTTTTTTTTTTTTTTTTTTTTTTTTTTT NUMDFT      TELAPSE       28.28 TCPU       27.80
 CYC   4 ETOT(AU) -9.155836205908E+02 DETOT -1.32E-04 tst  1.04E-06 PX  1.22E-03
 TTTTTTTTTTTTTTTTTTTTTTTTTTTTTT DIIS        TELAPSE       28.28 TCPU       27.80
 DIIS TEST: 0.16384E-04 AT SCF   CYCLE   4 - DIIS ACTIVE - HISTORY:     4 CYCLES
 TTTTTTTTTTTTTTTTTTTTTTTTTTTTTT FDIK        TELAPSE       28.31 TCPU       27.80
 INSULATING STATE
 TOP OF VALENCE BANDS -    BAND     60; K    1; EIG -3.6157775E-01 AU
 BOTTOM OF VIRTUAL BANDS - BAND     61; K    1; EIG -2.5022091E-02 AU
 DIRECT ENERGY BAND GAP:   9.1581 eV
 TTTTTTTTTTTTTTTTTTTTTTTTTTTTTT PDIG        TELAPSE       28.33 TCPU       27.82
 CHARGE NORMALIZATION FACTOR   1.00000000
 TOTAL ATOMIC CHARGES:
   8.9368759   8.9368759   8.9368759   8.9368759   8.9368759   8.9368759
   8.9368759   8.9368759   8.9401208   8.9401208   8.9401208   8.9401208
   0.5268619   0.5268619   0.5268619   0.5268619   0.5268619   0.5268619
   0.5268619   0.5268619   0.5272404   0.5272404   0.5272404   0.5272404
   0.5272404   0.5272404   0.5272404   0.5272404   0.5389614   0.5389614
   0.5389614   0.5389614   0.5389614   0.5389614   0.5389614   0.5389614
 TTTTTTTTTTTTTTTTTTTTTTTTTTTTTT MOQGAD      TELAPSE       28.33 TCPU       27.82
 TTTTTTTTTTTTTTTTTTTTTTTTTTTTTT SHELLXN     TELAPSE       31.64 TCPU       31.13
 TTTTTTTTTTTTTTTTTTTTTTTTTTTTTT MONMO3      TELAPSE       32.36 TCPU       31.85
 NUMERICALLY INTEGRATED DENSITY    120.0000112815
 TTTTTTTTTTTTTTTTTTTTTTTTTTTTTT NUMDFT      TELAPSE       32.83 TCPU       32.32
 CYC   5 ETOT(AU) -9.155836244265E+02 DETOT -3.84E-06 tst  7.89E-08 PX  6.79E-04
 TTTTTTTTTTTTTTTTTTTTTTTTTTTTTT DIIS        TELAPSE       32.84 TCPU       32.32
 DIIS TEST: 0.57171E-05 AT SCF   CYCLE   5 - DIIS ACTIVE - HISTORY:     5 CYCLES
 TTTTTTTTTTTTTTTTTTTTTTTTTTTTTT FDIK        TELAPSE       32.85 TCPU       32.33
 INSULATING STATE
 TOP OF VALENCE BANDS -    BAND     60; K    1; EIG -3.6151210E-01 AU
 BOTTOM OF VIRTUAL BANDS - BAND     61; K    1; EIG -2.5008896E-02 AU
 DIRECT ENERGY BAND GAP:   9.1567 eV
 TTTTTTTTTTTTTTTTTTTTTTTTTTTTTT PDIG        TELAPSE       32.85 TCPU       32.34
 CHARGE NORMALIZATION FACTOR   1.00000000
 TOTAL ATOMIC CHARGES:
   8.9364838   8.9364838   8.9364838   8.9364838   8.9364838   8.9364838
   8.9364838   8.9364838   8.9408121   8.9408121   8.9408121   8.9408121
   0.5269891   0.5269891   0.5269891   0.5269891   0.5269891   0.5269891
   0.5269891   0.5269891   0.5273003   0.5273003   0.5273003   0.5273003
   0.5273003   0.5273003   0.5273003   0.5273003   0.5388206   0.5388206
   0.5388206   0.5388206   0.5388206   0.5388206   0.5388206   0.5388206
 TTTTTTTTTTTTTTTTTTTTTTTTTTTTTT MOQGAD      TELAPSE       32.86 TCPU       32.34
 TTTTTTTTTTTTTTTTTTTTTTTTTTTTTT SHELLXN     TELAPSE       36.15 TCPU       35.64
 TTTTTTTTTTTTTTTTTTTTTTTTTTTTTT MONMO3      TELAPSE       36.85 TCPU       36.34
 NUMERICALLY INTEGRATED DENSITY    120.0000112782
 TTTTTTTTTTTTTTTTTTTTTTTTTTTTTT NUMDFT      TELAPSE       37.32 TCPU       36.81
 CYC   6 ETOT(AU) -9.155836263897E+02 DETOT -1.96E-06 tst  1.26E-08 PX  3.16E-04
 TTTTTTTTTTTTTTTTTTTTTTTTTTTTTT DIIS        TELAPSE       37.33 TCPU       36.81
 DIIS TEST: 0.24008E-06 AT SCF   CYCLE   6 - DIIS ACTIVE - HISTORY:     6 CYCLES
 TTTTTTTTTTTTTTTTTTTTTTTTTTTTTT FDIK        TELAPSE       37.34 TCPU       36.82
 INSULATING STATE
 TOP OF VALENCE BANDS -    BAND     60; K    1; EIG -3.6150758E-01 AU
 BOTTOM OF VIRTUAL BANDS - BAND     61; K    1; EIG -2.4998252E-02 AU
 DIRECT ENERGY BAND GAP:   9.1569 eV
 TTTTTTTTTTTTTTTTTTTTTTTTTTTTTT PDIG        TELAPSE       37.34 TCPU       36.82
 CHARGE NORMALIZATION FACTOR   1.00000000
 TOTAL ATOMIC CHARGES:
   8.9365061   8.9365061   8.9365061   8.9365061   8.9365061   8.9365061
   8.9365061   8.9365061   8.9406712   8.9406712   8.9406712   8.9406712
   0.5269878   0.5269878   0.5269878   0.5269878   0.5269878   0.5269878
   0.5269878   0.5269878   0.5273158   0.5273158   0.5273158   0.5273158
   0.5273158   0.5273158   0.5273158   0.5273158   0.5388547   0.5388547
   0.5388547   0.5388547   0.5388547   0.5388547   0.5388547   0.5388547
 TTTTTTTTTTTTTTTTTTTTTTTTTTTTTT MOQGAD      TELAPSE       37.35 TCPU       36.83
 TTTTTTTTTTTTTTTTTTTTTTTTTTTTTT SHELLXN     TELAPSE       40.66 TCPU       40.13
 TTTTTTTTTTTTTTTTTTTTTTTTTTTTTT MONMO3      TELAPSE       41.35 TCPU       40.83
 NUMERICALLY INTEGRATED DENSITY    120.0000112791
 TTTTTTTTTTTTTTTTTTTTTTTTTTTTTT NUMDFT      TELAPSE       41.82 TCPU       41.30
 CYC   7 ETOT(AU) -9.155836264527E+02 DETOT -6.30E-08 tst  7.58E-10 PX  7.61E-05
 TTTTTTTTTTTTTTTTTTTTTTTTTTTTTT DIIS        TELAPSE       41.83 TCPU       41.31
 DIIS TEST: 0.29083E-08 AT SCF   CYCLE   7 - DIIS ACTIVE - HISTORY:     7 CYCLES
 TTTTTTTTTTTTTTTTTTTTTTTTTTTTTT FDIK        TELAPSE       41.84 TCPU       41.31
 INSULATING STATE
 TOP OF VALENCE BANDS -    BAND     60; K    1; EIG -3.6150718E-01 AU
 BOTTOM OF VIRTUAL BANDS - BAND     61; K    1; EIG -2.4997839E-02 AU
 DIRECT ENERGY BAND GAP:   9.1569 eV
 TTTTTTTTTTTTTTTTTTTTTTTTTTTTTT PDIG        TELAPSE       41.84 TCPU       41.32
 CHARGE NORMALIZATION FACTOR   1.00000000
 TOTAL ATOMIC CHARGES:
   8.9365003   8.9365003   8.9365003   8.9365003   8.9365003   8.9365003
   8.9365003   8.9365003   8.9406750   8.9406750   8.9406750   8.9406750
   0.5269907   0.5269907   0.5269907   0.5269907   0.5269907   0.5269907
   0.5269907   0.5269907   0.5273145   0.5273145   0.5273145   0.5273145
   0.5273145   0.5273145   0.5273145   0.5273145   0.5388570   0.5388570
   0.5388570   0.5388570   0.5388570   0.5388570   0.5388570   0.5388570
 TTTTTTTTTTTTTTTTTTTTTTTTTTTTTT MOQGAD      TELAPSE       41.85 TCPU       41.32
 TTTTTTTTTTTTTTTTTTTTTTTTTTTTTT SHELLXN     TELAPSE       45.15 TCPU       44.62
 +++ ENERGIES IN A.U. +++
 ::: EXT EL-POLE                                  -1.0281476519027E+03
 ::: EXT EL-SPHEROPOLE                             1.2124862016465E+01
 ::: BIELET ZONE E-E                               1.2604896811593E+03
 ::: TOTAL E-E                                     2.4446689127305E+02
 ::: TOTAL E-N + N-E                              -1.8148906030096E+03
 ::: TOTAL N-N                                    -1.8622635134277E+02
 ::: KINETIC ENERGY                                9.0974530721906E+02
 ::: PSEUDO TOTAL   ENERGY                        -8.4690475586026E+02
 ::: VIRIAL COEFFICIENT                            1.0357729479989E+00
 TTTTTTTTTTTTTTTTTTTTTTTTTTTTTT MONMO3      TELAPSE       45.86 TCPU       45.33
 NUMERICALLY INTEGRATED DENSITY    120.0000112790
 TTTTTTTTTTTTTTTTTTTTTTTTTTTTTT NUMDFT      TELAPSE       46.33 TCPU       45.81
 CYC   8 ETOT(AU) -9.155836264596E+02 DETOT -6.88E-09 tst  5.77E-12 PX  7.61E-05

 == SCF ENDED - CONVERGENCE ON ENERGY      E(AU) -9.1558362645959E+02 CYCLES   8


 ENERGY EXPRESSION=HARTREE+FOCK EXCH*0.00000+(HSE-3c     EXCH)*1.00000+PBEh-3c    CORR


 TOTAL ENERGY(DFT)(AU)(  8) -9.1558362645959E+02 DE-6.9E-09 tester 5.8E-12
 TTTTTTTTTTTTTTTTTTTTTTTTTTTTTT EDFT        TELAPSE       46.33 TCPU       45.81
 
 INFORMATION **** DFTD3 ENERGY **** CALCULATE DFTD3 ENERGY

           DFT-D V3(BJ)
 DF                                         hse3c     
 parameters
 s6       :    1.0000
 s8       :    0.0000
 a1       :    0.4411
 a2       :    4.5182
 k1 k3    :   16.0000   -4.0000
 Cutoff   :   50.2022
 CN-Cutoff:   21.1671
 
 Edisp /kcal,au:   -24.0222 -0.03828179

 E6    /kcal :   -25.9494
 E8    /kcal :     0.0000
 E6(ABC) "   :   1.927224
 
 INFORMATION **** DFTD3 ENERGY **** NORMAL TERMINATION OF DFTD3 MODULE

 GCP ENERGY CALCULATION
  level           hse3c               basis:hse3c
  Nbf            228
  Atoms           36

  Parameters: 
  sigma     1.0000
  eta       1.4086
  alpha     0.2908
  beta      1.9526

  dmp_scal      4.0000
  dmp_exp       6.0000
 cutoffs: 
   distance [bohr] 60.0
   noise    [a.u.] 2.2E-16
 SR-damping   T
 ** gCP correction **
  Egcp:        0.1603433511 / (a.u.) ||     100.6170 / (kcal/mol)
 INFORMATION **** GCP **** NORMAL TERMINATION OF GCP MODULE

 *******************************************************************************

 DFT-D3-GCP DISPERSION AND COUNTERPOISE CORRECTION

 D3 DISPERSION ENERGY (AU)      -3.8281790434283E-02
 GCP ENERGY (AU)                 1.6034335112211E-01
 TOTAL ENERGY + DISP + GCP (AU) -9.1546156489890E+02

 *******************************************************************************

 EIGENVECTORS IN FORTRAN UNIT  8
 TTTTTTTTTTTTTTTTTTTTTTTTTTTTTT END         TELAPSE       48.50 TCPU       46.90
 EEEEEEEEEE TERMINATION  DATE 25 03 2019 TIME 17:53:29.1
NODE    0 CPU TIME =        46.898
NODE    1 CPU TIME =        47.982
NODE    2 CPU TIME =        47.995
NODE    3 CPU TIME =        44.619
NODE    4 CPU TIME =        48.040
NODE    5 CPU TIME =        48.024
NODE    6 CPU TIME =        48.116
NODE    7 CPU TIME =        47.951
    TOTAL CPU TIME =       379.623
