 PROCESS            3  OF            8  WORKING
 PROCESS            1  OF            8  WORKING
 PROCESS            4  OF            8  WORKING
 PROCESS            5  OF            8  WORKING
 PROCESS            6  OF            8  WORKING
 PROCESS            0  OF            8  WORKING
 PROCESS            7  OF            8  WORKING
 PROCESS            2  OF            8  WORKING

         
 *******************************************************************************
 *                                                                             *
 *                               CRYSTAL17                                     *
 *                      public : 1.0.1 - Feb 1st, 2017                         *
 *                       HTTP://WWW.CRYSTAL.UNITO.IT                           *
 *                                                                             *
 *                              MAIN AUTHORS                                   *
 *                                                                             *
 *  R. DOVESI(1,11), V.R. SAUNDERS(2), C. ROETTI(1,11), R. ORLANDO(1,11),      *
 *  C.M. ZICOVICH-WILSON(1,3), F. PASCALE(4), B. CIVALLERI(1,11),              *
 *  K. DOLL(5), N.M. HARRISON(2,6), I.J. BUSH(7), Ph. D'ARCO(8),               *
 *  M. LLUNELL(9), M. CAUSA'(10), Y. NOEL(8), L. MASCHIO(1,11), A. ERBA(1,11)  *
 *  M. RE'RAT(14), S. CASASSA(1,11)                                            *
 *                                                                             *
 *        CONTRIBUTIONS TO THE CODE HAVE ALSO BEEN GIVEN BY                    *
 *                                                                             *
 *  M. FERRABONE(1,11), M. DE LA PIERRE(1,11), M. FERRERO(1,11),               *
 *  J. BAIMA(1,11), E. ALBANESE(1,11), M.F. PEINTINGER(12), R. BAST(13),       *
 *  B. KIRTMAN(15), V. LACIVITA(1,11), R. DEMICHELIS(1,16)                     *
 *  G. BRANDEBURG(17), S. SALUSTRO(1,11), G. SANSONE(1,11)                     *
 *  M.T. RUGGIERO(18)                                                          *
 *                                                                             *
 * (1) THEORETICAL CHEMISTRY GROUP - UNIVERSITA' DI TORINO - TORINO (ITALY)    *

 * (2) COMPUTATIONAL SCIENCE & ENGINEERING DEPARTMENT - STFC DARESBURY (UK)    *
 * (3) UNIVERSIDAD AUTONOMA DEL ESTADO DE MORELOS - CUERNAVACA (MEXICO)        *
 * (4) UNIVERSITE' DE LORRAINE - NANCY (FRANCE)                                *
 * (5) UNIVERSITAET STUTTGART- STUTTGART (GERMANY)                             *
 * (6) IMPERIAL COLLEGE - LONDON (UK)                                          *
 * (7) OXFORD E-RESEARCH CENTRE - OXFORD (UK)                                  *
 * (8) UPMC - SORBONNE UNIVERSITES - PARIS (FRANCE)                            *
 * (9) UNIVERSIDAD DE BARCELONA - BARCELONA (SPAIN)                            *
 *(10) UNIVERSITA' DI NAPOLI "FEDERICO II" - NAPOLI (ITALY)                    *
 *(11) NIS - NANOSTRUCTURED INTERFACES AND SURFACES - TORINO (ITALY)           *
 *(12) MPI FUER CHEMISCHE ENERGIEKONVERSION - MUELHEIM AN DER RUHR (GERMANY)   *
 *(13) UNIVERSITY OF TROMSO - TROMSO (NORWAY)                                  *
 *(14) UNIVERSITE' DE PAU ET DES PAYS DE L'ADOUR - PAU (FRANCE)                *
 *(15) UNIVERSITY OF CALIFORNIA SANTA BARBARA - SANTA BARBARA (USA)            *
 *(16) CURTIN UNIVERSITY - PERTH (AUSTRALIA)                                   *
 *(17) UNIVERSITY COLLEGE LONDON - LONDON (UK)                                 *
 *(18) CAMBRIDGE UNIVERSITY - CAMBRIDGE (UK)                                   *
 *                                                                             *
 *******************************************************************************
 EEEEEEEEEE STARTING  DATE 25 03 2019 TIME 17:52:41.4
 !drive by JGB                                                                   

 CRYSTAL CALCULATION
 (INPUT ACCORDING TO THE INTERNATIONAL TABLES FOR X-RAY CRYSTALLOGRAPHY)
 CRYSTAL FAMILY                       :  MONOCLINIC  
 CRYSTAL CLASS  (GROTH - 1921)        :  MONOCLINIC SPHENOIDAL                

 SPACE GROUP (NONCENTROSYMMETRIC)     :  P 21            

 LATTICE PARAMETERS  (ANGSTROMS AND DEGREES) - CONVENTIONAL CELL
        A           B           C        ALPHA        BETA       GAMMA
     6.31282     7.21096     8.94129    90.00000    99.69123    90.00000


 NUMBER OF IRREDUCIBLE ATOMS IN THE CONVENTIONAL CELL:   24

 INPUT COORDINATES

 ATOM AT. N.              COORDINATES
   1   8     3.610298807191E-01  4.787452054688E-01  1.718104837857E-01
   2   8     9.435554589448E-01  3.590893262066E-01  4.731116107216E-01
   3   8     5.944025206131E-01  7.580566670635E-01  8.000859411221E-02
   4   8     1.930833602368E-01  9.465118291026E-01  7.870126897933E-02
   5   8     4.023452165882E-01  9.677384856422E-02  5.662240381752E-01
   6   8     1.362763051010E-02  6.953566357683E-01  2.344957497745E-01
   7   8     6.638187989728E-01  9.735986533993E-01  3.882100297436E-01
   8   8     8.842053438203E-01  2.254287299437E-01  1.796669982405E-01
   9   1     4.265430042324E-01  5.754139284386E-01  1.167583343693E-01
  10   1     2.225002855666E-01  5.289341984973E-01  1.869382395512E-01
  11   1     8.303155601494E-01  4.531863851084E-01  4.656140808671E-01
  12   1     8.018706037602E-02  4.221298424827E-01  5.085551199935E-01
  13   1     6.172432146930E-01  8.003930339683E-01  9.807057013485E-01
  14   1     7.372289877321E-01  7.328156674471E-01  1.378886105975E-01
  15   1     1.576093375424E-01  8.918707699249E-01  9.770343096632E-01
  16   1     3.460044681971E-01  9.233854882780E-01  1.065023946355E-01
  17   1     4.838825214325E-01  4.305633129922E-02  6.601331160390E-01
  18   1     3.821518197552E-01  2.275618830941E-01  5.888268038249E-01
  19   1     3.756387912627E-02  7.320280160516E-01  3.410521267158E-01
  20   1     7.774550763126E-02  7.957495251815E-01  1.818643783346E-01
  21   1     5.656946092728E-01  4.277223083321E-02  4.427660832554E-01
  22   1     6.903316188750E-01  4.547297569713E-02  3.019438030331E-01
  23   1     9.253820074070E-01  2.794416433726E-01  2.809373394689E-01
  24   1     1.994986212363E-03  1.482171848081E-01  1.605643596858E-01

 *******************************************************************************

 << INFORMATION >>: FROM NOW ON, ALL COORDINATES REFER TO THE PRIMITIVE CELL

 *******************************************************************************

 LATTICE PARAMETERS  (ANGSTROMS AND DEGREES) - PRIMITIVE CELL
       A          B          C        ALPHA      BETA     GAMMA        VOLUME
    6.31282    7.21096    8.94129    90.00000  99.69123  90.00000    401.211687

 COORDINATES OF THE EQUIVALENT ATOMS (FRACTIONAL UNITS)

 N. ATOM EQUIV AT. N.          X                  Y                  Z

   1   1   1    8 O     3.61029880719E-01  4.78745205469E-01  1.71810483786E-01
   2   1   2    8 O    -3.61029880719E-01 -2.12547945312E-02 -1.71810483786E-01

   3   2   1    8 O    -5.64445410552E-02  3.59089326207E-01  4.73111610722E-01
   4   2   2    8 O     5.64445410552E-02 -1.40910673793E-01 -4.73111610722E-01

   5   3   1    8 O    -4.05597479387E-01 -2.41943332937E-01  8.00085941122E-02
   6   3   2    8 O     4.05597479387E-01  2.58056667063E-01 -8.00085941122E-02

   7   4   1    8 O     1.93083360237E-01 -5.34881708974E-02  7.87012689793E-02
   8   4   2    8 O    -1.93083360237E-01  4.46511829103E-01 -7.87012689793E-02

   9   5   1    8 O     4.02345216588E-01  9.67738485642E-02 -4.33775961825E-01
  10   5   2    8 O    -4.02345216588E-01 -4.03226151436E-01  4.33775961825E-01

  11   6   1    8 O     1.36276305101E-02 -3.04643364232E-01  2.34495749774E-01
  12   6   2    8 O    -1.36276305101E-02  1.95356635768E-01 -2.34495749774E-01

  13   7   1    8 O    -3.36181201027E-01 -2.64013466007E-02  3.88210029744E-01
  14   7   2    8 O     3.36181201027E-01  4.73598653399E-01 -3.88210029744E-01

  15   8   1    8 O    -1.15794656180E-01  2.25428729944E-01  1.79666998241E-01
  16   8   2    8 O     1.15794656180E-01 -2.74571270056E-01 -1.79666998241E-01

  17   9   1    1 H     4.26543004232E-01 -4.24586071561E-01  1.16758334369E-01
  18   9   2    1 H    -4.26543004232E-01  7.54139284386E-02 -1.16758334369E-01

  19  10   1    1 H     2.22500285567E-01 -4.71065801503E-01  1.86938239551E-01
  20  10   2    1 H    -2.22500285567E-01  2.89341984973E-02 -1.86938239551E-01

  21  11   1    1 H    -1.69684439851E-01  4.53186385108E-01  4.65614080867E-01
  22  11   2    1 H     1.69684439851E-01 -4.68136148916E-02 -4.65614080867E-01

  23  12   1    1 H     8.01870603760E-02  4.22129842483E-01 -4.91444880006E-01
  24  12   2    1 H    -8.01870603760E-02 -7.78701575173E-02  4.91444880006E-01

  25  13   1    1 H    -3.82756785307E-01 -1.99606966032E-01 -1.92942986515E-02
  26  13   2    1 H     3.82756785307E-01  3.00393033968E-01  1.92942986515E-02

  27  14   1    1 H    -2.62771012268E-01 -2.67184332553E-01  1.37888610597E-01
  28  14   2    1 H     2.62771012268E-01  2.32815667447E-01 -1.37888610597E-01

  29  15   1    1 H     1.57609337542E-01 -1.08129230075E-01 -2.29656903368E-02
  30  15   2    1 H    -1.57609337542E-01  3.91870769925E-01  2.29656903368E-02

  31  16   1    1 H     3.46004468197E-01 -7.66145117220E-02  1.06502394636E-01
  32  16   2    1 H    -3.46004468197E-01  4.23385488278E-01 -1.06502394636E-01

  33  17   1    1 H     4.83882521432E-01  4.30563312992E-02 -3.39866883961E-01
  34  17   2    1 H    -4.83882521432E-01 -4.56943668701E-01  3.39866883961E-01

  35  18   1    1 H     3.82151819755E-01  2.27561883094E-01 -4.11173196175E-01
  36  18   2    1 H    -3.82151819755E-01 -2.72438116906E-01  4.11173196175E-01

  37  19   1    1 H     3.75638791263E-02 -2.67971983948E-01  3.41052126716E-01
  38  19   2    1 H    -3.75638791263E-02  2.32028016052E-01 -3.41052126716E-01

  39  20   1    1 H     7.77455076313E-02 -2.04250474819E-01  1.81864378335E-01
  40  20   2    1 H    -7.77455076313E-02  2.95749525181E-01 -1.81864378335E-01

  41  21   1    1 H    -4.34305390727E-01  4.27722308332E-02  4.42766083255E-01
  42  21   2    1 H     4.34305390727E-01 -4.57227769167E-01 -4.42766083255E-01

  43  22   1    1 H    -3.09668381125E-01  4.54729756971E-02  3.01943803033E-01
  44  22   2    1 H     3.09668381125E-01 -4.54527024303E-01 -3.01943803033E-01

  45  23   1    1 H    -7.46179925930E-02  2.79441643373E-01  2.80937339469E-01
  46  23   2    1 H     7.46179925930E-02 -2.20558356627E-01 -2.80937339469E-01

  47  24   1    1 H     1.99498621236E-03  1.48217184808E-01  1.60564359686E-01
  48  24   2    1 H    -1.99498621236E-03 -3.51782815192E-01 -1.60564359686E-01

 NUMBER OF SYMMETRY OPERATORS         :    2
 *******************************************************************************
 * GEOMETRY EDITING - INPUT COORDINATES ARE GIVEN IN ANGSTROM         
 *******************************************************************************

 GEOMETRY NOW FULLY CONSISTENT WITH THE GROUP

 GCALCO - MAX INDICES DIRECT LATTICE VECTOR    17    15    12
 NO.OF VECTORS CREATED 6999 STARS 1864 RMAX   165.57297 BOHR

 GEOMETRY FOR WAVE FUNCTION - DIMENSIONALITY OF THE SYSTEM    3
 (NON PERIODIC DIRECTION: LATTICE PARAMETER FORMALLY SET TO 500)
 *******************************************************************************
 LATTICE PARAMETERS (ANGSTROMS AND DEGREES) - BOHR = 0.5291772083 ANGSTROM
 PRIMITIVE CELL - CENTRING CODE 1/0 VOLUME=   401.211687 - DENSITY  1.193 g/cm^3
         A              B              C           ALPHA      BETA       GAMMA 
     6.31281616     7.21095592     8.94128532    90.000000  99.691233  90.000000
 *******************************************************************************
 ATOMS IN THE ASYMMETRIC UNIT   24 - ATOMS IN THE UNIT CELL:   48
     ATOM                 X/A                 Y/B                 Z/C    
 *******************************************************************************
      1 T   8 O     3.610298807191E-01  4.787452054688E-01  1.718104837857E-01
      2 F   8 O    -3.610298807191E-01 -2.125479453120E-02 -1.718104837857E-01
      3 T   8 O    -5.644454105525E-02  3.590893262066E-01  4.731116107216E-01
      4 F   8 O     5.644454105525E-02 -1.409106737934E-01 -4.731116107216E-01
      5 T   8 O    -4.055974793869E-01 -2.419433329365E-01  8.000859411221E-02
      6 F   8 O     4.055974793869E-01  2.580566670635E-01 -8.000859411221E-02
      7 T   8 O     1.930833602368E-01 -5.348817089737E-02  7.870126897933E-02
      8 F   8 O    -1.930833602368E-01  4.465118291026E-01 -7.870126897933E-02
      9 T   8 O     4.023452165882E-01  9.677384856422E-02 -4.337759618248E-01
     10 F   8 O    -4.023452165882E-01 -4.032261514358E-01  4.337759618248E-01
     11 T   8 O     1.362763051010E-02 -3.046433642317E-01  2.344957497745E-01
     12 F   8 O    -1.362763051010E-02  1.953566357683E-01 -2.344957497745E-01
     13 T   8 O    -3.361812010272E-01 -2.640134660075E-02  3.882100297436E-01
     14 F   8 O     3.361812010272E-01  4.735986533993E-01 -3.882100297436E-01
     15 T   8 O    -1.157946561797E-01  2.254287299437E-01  1.796669982405E-01
     16 F   8 O     1.157946561797E-01 -2.745712700563E-01 -1.796669982405E-01
     17 T   1 H     4.265430042324E-01 -4.245860715614E-01  1.167583343693E-01
     18 F   1 H    -4.265430042324E-01  7.541392843860E-02 -1.167583343693E-01
     19 T   1 H     2.225002855666E-01 -4.710658015027E-01  1.869382395512E-01
     20 F   1 H    -2.225002855666E-01  2.893419849730E-02 -1.869382395512E-01
     21 T   1 H    -1.696844398506E-01  4.531863851084E-01  4.656140808671E-01
     22 F   1 H     1.696844398506E-01 -4.681361489160E-02 -4.656140808671E-01
     23 T   1 H     8.018706037602E-02  4.221298424827E-01 -4.914448800065E-01
     24 F   1 H    -8.018706037602E-02 -7.787015751730E-02  4.914448800065E-01
     25 T   1 H    -3.827567853070E-01 -1.996069660317E-01 -1.929429865153E-02
     26 F   1 H     3.827567853070E-01  3.003930339683E-01  1.929429865153E-02
     27 T   1 H    -2.627710122679E-01 -2.671843325529E-01  1.378886105975E-01
     28 F   1 H     2.627710122679E-01  2.328156674471E-01 -1.378886105975E-01
     29 T   1 H     1.576093375424E-01 -1.081292300751E-01 -2.296569033682E-02
     30 F   1 H    -1.576093375424E-01  3.918707699249E-01  2.296569033682E-02
     31 T   1 H     3.460044681971E-01 -7.661451172197E-02  1.065023946355E-01
     32 F   1 H    -3.460044681971E-01  4.233854882780E-01 -1.065023946355E-01
     33 T   1 H     4.838825214325E-01  4.305633129922E-02 -3.398668839610E-01
     34 F   1 H    -4.838825214325E-01 -4.569436687008E-01  3.398668839610E-01
     35 T   1 H     3.821518197552E-01  2.275618830941E-01 -4.111731961751E-01
     36 F   1 H    -3.821518197552E-01 -2.724381169059E-01  4.111731961751E-01
     37 T   1 H     3.756387912627E-02 -2.679719839484E-01  3.410521267158E-01
     38 F   1 H    -3.756387912627E-02  2.320280160516E-01 -3.410521267158E-01
     39 T   1 H     7.774550763126E-02 -2.042504748185E-01  1.818643783346E-01
     40 F   1 H    -7.774550763126E-02  2.957495251815E-01 -1.818643783346E-01
     41 T   1 H    -4.343053907272E-01  4.277223083321E-02  4.427660832554E-01
     42 F   1 H     4.343053907272E-01 -4.572277691668E-01 -4.427660832554E-01
     43 T   1 H    -3.096683811250E-01  4.547297569713E-02  3.019438030331E-01
     44 F   1 H     3.096683811250E-01 -4.545270243029E-01 -3.019438030331E-01
     45 T   1 H    -7.461799259303E-02  2.794416433726E-01  2.809373394689E-01
     46 F   1 H     7.461799259303E-02 -2.205583566274E-01 -2.809373394689E-01
     47 T   1 H     1.994986212363E-03  1.482171848081E-01  1.605643596858E-01
     48 F   1 H    -1.994986212363E-03 -3.517828151919E-01 -1.605643596858E-01

 T = ATOM BELONGING TO THE ASYMMETRIC UNIT

 ****    2 SYMMOPS - TRANSLATORS IN FRACTIONAL UNITS
 **** MATRICES AND TRANSLATORS IN THE CRYSTALLOGRAPHIC REFERENCE FRAME
   V INV                    ROTATION MATRICES                   TRANSLATORS
   1   1  1.00  0.00  0.00  0.00  1.00  0.00  0.00  0.00  1.00  0.00  0.00  0.00
   2   2 -1.00  0.00 -0.00  0.00  1.00 -0.00  0.00  0.00 -1.00  0.00  0.50  0.00

 DIRECT LATTICE VECTORS CARTESIAN COMPONENTS (ANGSTROM)
          X                    Y                    Z
   0.631281616000E+01   0.386548505197E-15   0.000000000000E+00
   0.000000000000E+00   0.721095592000E+01   0.000000000000E+00
  -0.150516302498E+01   0.547495822370E-15   0.881368637075E+01


 CARTESIAN COORDINATES - PRIMITIVE CELL
 *******************************************************************************
 *      ATOM          X(ANGSTROM)         Y(ANGSTROM)         Z(ANGSTROM)
 *******************************************************************************
    1     8 O     2.020512477749E+00  3.452210573547E+00  1.514283719293E+00
    2     8 O    -2.020512477749E+00 -1.532673864531E-01 -1.514283719293E+00
    3     8 O    -1.068434114063E+00  2.589377302618E+00  4.169857355259E+00
    4     8 O     1.068434114063E+00 -1.016100657382E+00 -4.169857355259E+00
    5     8 O    -2.680888299867E+00 -1.744642708943E+00  7.051706554694E-01
    6     8 O     2.680888299867E+00  1.860835251057E+00 -7.051706554694E-01
    7     8 O     1.100441516644E+00 -3.857008425824E-01  6.936483017636E-01
    8     8 O    -1.100441516644E+00  3.219777117418E+00 -6.936483017636E-01
    9     8 O    -3.119981235961E+00  6.978319562053E-01 -3.823165282693E+00
   10     8 O     3.119981235961E+00 -2.907646003795E+00  3.823165282693E+00
   11     8 O    -2.669256059680E-01 -2.196769870795E+00  2.066771993786E+00
   12     8 O     2.669256059680E-01  1.408708089205E+00 -2.066771993786E+00
   13     8 O    -2.706569501228E+00 -1.903789465666E-01  3.421561448138E+00
   14     8 O     2.706569501228E+00  3.415099013433E+00 -3.421561448138E+00
   15     8 O    -1.001418499333E+00  1.625556634726E+00  1.583528573665E+00
   16     8 O     1.001418499333E+00 -1.979921325274E+00 -1.583528573665E+00
   17     1 H     2.516947242303E+00 -3.061671446275E+00  1.029071340302E+00
   18     1 H    -2.516947242303E+00  5.438065137248E-01 -1.029071340302E+00
   19     1 H     1.123230872203E+00 -3.396834730055E+00  1.647615014104E+00
   20     1 H    -1.123230872203E+00  2.086432299446E-01 -1.647615014104E+00
   21     1 H    -1.772011772419E+00  3.267907046561E+00  4.103776478566E+00
   22     1 H     1.772011772419E+00 -3.375709134392E-01 -4.103776478566E+00
   23     1 H    -2.592521922120E-01  3.043959686659E+00  4.482245329860E+00
   24     1 H     2.592521922120E-01 -5.615182733407E-01 -4.482245329860E+00
   25     1 H    -2.387232154713E+00 -1.439357033380E+00 -1.700538970581E-01
   26     1 H     2.387232154713E+00  2.166120926620E+00  1.700538970581E-01
   27     1 H    -1.866369930861E+00 -1.926654444554E+00  1.215306967904E+00
   28     1 H     1.866369930861E+00  1.678823515446E+00 -1.215306967904E+00
   29     1 H     1.029525880943E+00 -7.797151117351E-01 -2.024123919164E-01
   30     1 H    -1.029525880943E+00  2.825762848265E+00  2.024123919164E-01
   31     1 H     2.023959131790E+00 -5.524638668594E-01  9.386787040508E-01
   32     1 H    -2.023959131790E+00  3.053014093141E+00 -9.386787040508E-01
   33     1 H    -2.746599692007E+00  3.104773070756E-01 -2.995480123035E+00
   34     1 H     2.746599692007E+00 -3.295000652924E+00  2.995480123035E+00
   35     1 H     3.031336875068E+00  1.640938708064E+00 -3.623951595145E+00
   36     1 H    -3.031336875068E+00 -1.964539251936E+00  3.623951595145E+00
   37     1 H    -2.762051875416E-01 -1.932334164047E+00  3.005926480949E+00
   38     1 H     2.762051875416E-01  1.673143795953E+00 -3.005926480949E+00
   39     1 H     2.170575591125E-01 -1.472841170555E+00  1.602895592652E+00
   40     1 H    -2.170575591125E-01  2.132636789445E+00 -1.602895592652E+00
   41     1 H     2.904690933813E+00  3.084286711383E-01  3.902401393417E+00
   42     1 H    -2.904690933813E+00 -3.297049288862E+00 -3.902401393417E+00
   43     1 H    -2.409354208553E+00  3.279036233032E-01  2.661237981524E+00
   44     1 H     2.409354208553E+00 -3.277574336697E+00 -2.661237981524E+00
   45     1 H    -8.939061651719E-01  2.015041372572E+00  2.476093599911E+00
   46     1 H     8.939061651719E-01 -1.590436587428E+00 -2.476093599911E+00
   47     1 H    -2.290815561277E-01  1.068787586238E+00  1.415163908590E+00
   48     1 H     2.290815561277E-01 -2.536690373762E+00 -1.415163908590E+00

 *******************************************************************************
 STARTING BASIS SET HANDLING 
 *******************************************************************************

 Loading internal basis set: DEF2-MSVP           

 Please cite in your publication:
 Fully Optimized Contracted Gaussian Basis Sets for Atoms Li to Kr. A. Schäfer, 
 H. Horn and R. Ahlrichs; J. Chem. Phys. 97, 2571 (1992).                       
                                                                                
                    
 S. Grimme, J. G. Brandenburg, C. Bannwarth, and A. Hansen, J. Chem. Phys., 143,
  054107 (2015).                                                                
                                                                                
                    

 *******************************************************************************
 LOCAL ATOMIC FUNCTIONS BASIS SET
 *******************************************************************************
   ATOM   X(AU)   Y(AU)   Z(AU)  N. TYPE  EXPONENT  S COEF   P COEF   D/F/G COEF
 *******************************************************************************
   1 O    3.818   6.524   2.862
                                  1 S  
                                         6.773E+03 1.727E-03 0.000E+00 0.000E+00
                                         1.017E+03 1.325E-02 0.000E+00 0.000E+00
                                         2.313E+02 6.603E-02 0.000E+00 0.000E+00
                                         6.501E+01 2.353E-01 0.000E+00 0.000E+00
                                         2.050E+01 5.498E-01 0.000E+00 0.000E+00
                                  2 S  
                                         6.716E+00 1.000E+00 0.000E+00 0.000E+00
                                  3 S  
                                         1.147E+00 1.000E+00 0.000E+00 0.000E+00
                                  4 S  
                                         3.342E-01 1.000E+00 0.000E+00 0.000E+00
                           5-     7 P  
                                         1.769E+01 0.000E+00 4.359E-02 0.000E+00
                                         3.854E+00 0.000E+00 2.318E-01 0.000E+00
                                         1.047E+00 0.000E+00 5.146E-01 0.000E+00
                           8-    10 P  
                                         2.759E-01 0.000E+00 1.000E+00 0.000E+00
                          11-    15 D  
                                         8.000E-01 0.000E+00 0.000E+00 1.000E+00
   2 O   -3.818  -0.290  -2.862
   3 O   -2.019   4.893   7.880
   4 O    2.019  -1.920  -7.880
   5 O   -5.066  -3.297   1.333
   6 O    5.066   3.516  -1.333
   7 O    2.080  -0.729   1.311
   8 O   -2.080   6.084  -1.311
   9 O   -5.896   1.319  -7.225
  10 O    5.896  -5.495   7.225
  11 O   -0.504  -4.151   3.906
  12 O    0.504   2.662  -3.906
  13 O   -5.115  -0.360   6.466
  14 O    5.115   6.454  -6.466
  15 O   -1.892   3.072   2.992
  16 O    1.892  -3.742  -2.992
  17 H    4.756  -5.786   1.945
                                241 S  
                                         1.874E+01 1.968E-02 0.000E+00 0.000E+00
                                         2.826E+00 1.380E-01 0.000E+00 0.000E+00
                                         6.401E-01 4.783E-01 0.000E+00 0.000E+00
                                242 S  
                                         1.756E-01 1.000E+00 0.000E+00 0.000E+00
  18 H   -4.756   1.028  -1.945
  19 H    2.123  -6.419   3.114
  20 H   -2.123   0.394  -3.114
  21 H   -3.349   6.175   7.755
  22 H    3.349  -0.638  -7.755
  23 H   -0.490   5.752   8.470
  24 H    0.490  -1.061  -8.470
  25 H   -4.511  -2.720  -0.321
  26 H    4.511   4.093   0.321
  27 H   -3.527  -3.641   2.297
  28 H    3.527   3.173  -2.297
  29 H    1.946  -1.473  -0.383
  30 H   -1.946   5.340   0.383
  31 H    3.825  -1.044   1.774
  32 H   -3.825   5.769  -1.774
  33 H   -5.190   0.587  -5.661
  34 H    5.190  -6.227   5.661
  35 H    5.728   3.101  -6.848
  36 H   -5.728  -3.712   6.848
  37 H   -0.522  -3.652   5.680
  38 H    0.522   3.162  -5.680
  39 H    0.410  -2.783   3.029
  40 H   -0.410   4.030  -3.029
  41 H    5.489   0.583   7.374
  42 H   -5.489  -6.231  -7.374
  43 H   -4.553   0.620   5.029
  44 H    4.553  -6.194  -5.029
  45 H   -1.689   3.808   4.679
  46 H    1.689  -3.005  -4.679
  47 H   -0.433   2.020   2.674
  48 H    0.433  -4.794  -2.674

 *******************************************************************************
 FINISHED BASIS SET HANDLING 
 *******************************************************************************

 INFORMATION **** SET_MPP **** PCRYSTAL CALCULATION
 INFORMATION **** READM2 **** NEW DEFAULT: FOCK/KS MATRIX MIXING SET TO 30 %
 INFORMATION **** READM2 **** NEW DEFAULT: FULL DIRECT SCF MODE
 INFORMATION **** READM2 **** NEW DEFAULT: COULOMB BIPOLAR BUFFER SET TO 32 Mb
 INFORMATION **** READM2 **** NEW DEFAULT: EXCHANGE BIPOLAR BUFFER SET TO 32 Mb

 *******************************************************************************
 NEW DEFAULT: DFT INTEGRATION GRID INCREASED TO XLGRID
 NEW DEFAULT: DIIS ACCELERATOR ACTIVE
 USE KEYWORD NODIIS TO TURN IT OFF
 *******************************************************************************

 INFORMATION **** RDDFTP **** HSE-3c calculation
 INFORMATION **** RDDFTP **** HSE screened hybrid functional combined with D3 and gCP

PLEASE CITE:
(1) HSE-3c Reference
 J. G. Brandenburg, E. Caldeweyer, and S. Grimme, 
 Phys. Chem. Chem. Phys. 18, 15519 (2016)
(2) DFT-D3 Reference
 S. Grimme, J. Antony, S. Ehrlich,
 and H. Krieg, J. Chem. Phys. 132, 154104 (2010)
(3) gCP Reference
 H. Kruse and S. Grimme J. Chem. Phys, 136, 154101 (2012)
 J. G. Brandenburg, M. Alessio, B. Civalleri, M. F. Peintinger
 T. Bredow, and S. Grimme, J. Phys. Chem. A, 117, 9282 (2013) 

 WARNING **** RDDFTP **** HSE3c-HJS ACTIVE
 RANGE SEPARATION - OMEGA:   0.110000000000000     
 WARNING **** RDDFTP **** HSE-3c has to be combined with def2-mSVP basis set
 WARNING **** RDDFTP **** Note: Harmonic frequencies are scaled by 0.95
 WARNING **** RDDFTP **** as recommended in original publication
 INFORMATION **** BIPOSIZE **** COULOMB BIPOLAR BUFFER SET TO    60000000
 INFORMATION **** EXCHSIZE **** EXCHANGE BIPOLAR BUFFER SIZE SET TO    40000000
 *******************************************************************************
 N. OF ATOMS PER CELL        48  COULOMB OVERLAP TOL         (T1) 10**   -6
 NUMBER OF SHELLS           176  COULOMB PENETRATION TOL     (T2) 10**   -6
 NUMBER OF AO               304  EXCHANGE OVERLAP TOL        (T3) 10**   -6
 N. OF ELECTRONS PER CELL   160  EXCHANGE PSEUDO OVP (F(G))  (T4) 10**   -6
 CORE ELECTRONS PER CELL     32  EXCHANGE PSEUDO OVP (P(G))  (T5) 10**  -12
 N. OF SYMMETRY OPERATORS     2  POLE ORDER IN MONO ZONE                  4
 *******************************************************************************
 TYPE OF CALCULATION :  RESTRICTED CLOSED SHELL
 KOHN-SHAM HAMILTONIAN

 (EXCHANGE)[CORRELATION] FUNCTIONAL:(HSE-3c)[PBEh-3c]

 RANGE-SEPARATED HYBRID FUNCTIONAL 
 OMEGA (SHORT-RANGE)[LONG-RANGE]:(    0.1100)[    0.0000]

 HYBRID EXCHANGE - PERCENTAGE OF FOCK EXCHANGE    42.0000

 CAPPA:IS1  2;IS2  2;IS3  1; K PTS MONK NET   4; SYMMOPS:K SPACE   4;G SPACE   2

 *******************************************************************************
 MAX NUMBER OF SCF CYCLES      50  CONVERGENCE ON DELTAP        10**-16
 WEIGHT OF F(I) IN F(I+1)      30% CONVERGENCE ON ENERGY        10**- 6
 S(K) EIGENV. THRESHOLD  10*10.**-4
 SHRINK. FACT.(MONKH.)    2  2  1  NUMBER OF K POINTS IN THE IBZ      4
 SHRINKING FACTOR(GILAT NET)    2  NUMBER OF K POINTS(GILAT NET)      4
 *******************************************************************************
 *** K POINTS COORDINATES (OBLIQUE COORDINATES IN UNITS OF IS =  2)
   1-R(  0  0  0)   2-R(  1  0  0)   3-R(  0  1  0)   4-R(  1  1  0)

 DIRECT LATTICE VECTORS COMPON. (A.U.)     RECIP. LATTICE VECTORS COMPON. (A.U.) 
        X            Y            Z              X            Y            Z
   11.9294937    0.0000000    0.0000000      0.5266934    0.0000000    0.0899464
    0.0000000   13.6267319    0.0000000     -0.0000000    0.4610926   -0.0000000
   -2.8443459    0.0000000   16.6554535      0.0000000    0.0000000    0.3772449

 DISK SPACE FOR EIGENVECTORS (FTN 10)      369664 REALS

 SYMMETRY ADAPTION OF THE BLOCH FUNCTIONS ENABLED
 TTTTTTTTTTTTTTTTTTTTTTTTTTTTTT gordsh1     TELAPSE        0.33 TCPU        0.05

 MATRIX SIZE: P(G)  186224, F(G)   32766, P(G) IRR   47302, F(G) IRR   16608
 MAX G-VECTOR INDEX FOR 1- AND 2-ELECTRON INTEGRALS  79

 TTTTTTTTTTTTTTTTTTTTTTTTTTTTTT INPUT       TELAPSE        0.36 TCPU        0.06

 NEIGHBORS OF THE NON-EQUIVALENT ATOMS

 N = NUMBER OF NEIGHBORS AT DISTANCE R
    ATOM  N     R/ANG      R/AU   NEIGHBORS (ATOM LABELS AND CELL INDICES)
   1 O    1     0.9767     1.8456   19 H    0 1 0
   1 O    1     0.9838     1.8590   17 H    0 1 0
   1 O    1     1.7135     3.2381   34 H    0 1 0
   1 O    1     1.8962     3.5832   26 H    0 0 0
   1 O    1     2.6952     5.0932   10 O    0 1 0
   1 O    1     2.7033     5.1085    5 O    1 1 0

   3 O    1     0.9793     1.8506   23 H    0 0 0
   3 O    1     0.9797     1.8513   21 H    0 0 0
   3 O    1     1.7970     3.3958   45 H    0 0 0
   3 O    1     1.8836     3.5595   38 H    0 0 1
   3 O    1     2.7070     5.1155   14 O    0 0 1
   3 O    1     2.7515     5.1996   10 O   -1 1 0

   5 O    1     0.9723     1.8375   25 H    0 0 0
   5 O    1     0.9782     1.8485   27 H    0 0 0
   5 O    1     1.7558     3.3179   17 H   -1 0 0
   5 O    1     2.0153     3.8083   31 H   -1 0 0
   5 O    1     2.7033     5.1085    1 O   -1-1 0
   5 O    1     2.8081     5.3066   11 O    0 0 0

   7 O    1     0.9699     1.8329   31 H    0 0 0
   7 O    1     0.9814     1.8546   29 H    0 0 0
   7 O    1     1.6700     3.1559   39 H    0 0 0
   7 O    1     2.0985     3.9656   47 H    0 0 0
   7 O    1     2.6524     5.0123   11 O    0 0 0
   7 O    1     2.7815     5.2563   16 O    0 0 0

   9 O    1     0.9774     1.8469   35 H   -1 0 0
   9 O    1     0.9872     1.8655   33 H    0 0 0
   9 O    1     1.6783     3.1716   41 H   -1 0-1
   9 O    1     1.7803     3.3643   22 H   -1 0 0
   9 O    1     2.6328     4.9752   13 O    0 0-1
   9 O    1     2.6952     5.0932    2 O    0 0 0

  11 O    1     0.9757     1.8438   37 H    0 0 0
  11 O    1     0.9867     1.8645   39 H    0 0 0
  11 O    1     1.8320     3.4620   27 H    0 0 0
  11 O    1     1.8837     3.5597   19 H    0 0 0
  11 O    1     2.6524     5.0123    7 O    0 0 0
  11 O    1     2.8081     5.3066    5 O    0 0 0

  13 O    1     0.9670     1.8273   43 H    0 0 0
  13 O    1     0.9860     1.8633   41 H   -1 0 0
  13 O    1     1.7604     3.3267   24 H    0 0 1
  13 O    1     1.8150     3.4298   36 H    0 0 0
  13 O    1     2.6328     4.9752    9 O    0 0 1
  13 O    1     2.7070     5.1155    4 O    0 0 1

  15 O    1     0.9669     1.8271   47 H    0 0 0
  15 O    1     0.9798     1.8515   45 H    0 0 0
  15 O    1     1.8300     3.4581   30 H    0 0 0
  15 O    1     2.1972     4.1521   43 H    0 0 0
  15 O    1     2.7609     5.2173    3 O    0 0 0
  15 O    1     2.7815     5.2563    8 O    0 0 0

  17 H    1     0.9838     1.8590    1 O    0-1 0
  17 H    1     1.5612     2.9503   19 H    0 0 0
  17 H    1     1.7558     3.3179    5 O    1 0 0
  17 H    1     1.9935     3.7671   34 H    0 0 0
  17 H    1     2.1651     4.0915   26 H    0-1 0
  17 H    1     2.2463     4.2449   27 H    1 0 0

  19 H    1     0.9767     1.8456    1 O    0-1 0
  19 H    1     1.5612     2.9503   17 H    0 0 0
  19 H    1     1.8837     3.5597   11 O    0 0 0
  19 H    1     2.1124     3.9919   34 H    0 0 0
  19 H    1     2.1272     4.0198   39 H    0 0 0
  19 H    1     2.4389     4.6088   37 H    0 0 0

  21 H    1     0.9797     1.8513    3 O    0 0 0
  21 H    1     1.5754     2.9770   23 H    0 0 0
  21 H    1     1.7803     3.3643   10 O   -1 1 0
  21 H    1     2.2062     4.1692   34 H   -1 1 0
  21 H    1     2.2339     4.2214   45 H    0 0 0
  21 H    1     2.3939     4.5238   36 H    0 1 0

  23 H    1     0.9793     1.8506    3 O    0 0 0
  23 H    1     1.5754     2.9770   21 H    0 0 0
  23 H    1     1.7604     3.3267   14 O    0 0 1
  23 H    1     2.1393     4.0426   38 H    0 0 1
  23 H    1     2.2213     4.1977   44 H    0 1 1
  23 H    1     2.3422     4.4262   45 H    0 0 0

  25 H    1     0.9723     1.8375    5 O    0 0 0
  25 H    1     1.5582     2.9446   27 H    0 0 0
  25 H    1     1.8962     3.5832    2 O    0 0 0
  25 H    1     2.1651     4.0915   18 H    0 0 0
  25 H    1     2.3732     4.4847   31 H   -1 0 0
  25 H    1     2.4605     4.6497   17 H   -1 0 0

  27 H    1     0.9782     1.8485    5 O    0 0 0
  27 H    1     1.5582     2.9446   25 H    0 0 0
  27 H    1     1.8320     3.4620   11 O    0 0 0
  27 H    1     2.1672     4.0955   39 H    0 0 0
  27 H    1     2.2463     4.2449   17 H   -1 0 0
  27 H    1     2.3948     4.5255   37 H    0 0 0

  29 H    1     0.9814     1.8546    7 O    0 0 0
  29 H    1     1.5306     2.8923   31 H    0 0 0
  29 H    1     1.8300     3.4581   16 O    0 0 0
  29 H    1     2.0975     3.9638   39 H    0 0 0
  29 H    1     2.2800     4.3086   48 H    0 0 0
  29 H    1     2.4177     4.5688   46 H    0 0 0

  31 H    1     0.9699     1.8329    7 O    0 0 0
  31 H    1     1.5306     2.8923   29 H    0 0 0
  31 H    1     2.0153     3.8083    5 O    1 0 0
  31 H    1     2.1338     4.0323   39 H    0 0 0
  31 H    1     2.3732     4.4847   25 H    1 0 0
  31 H    1     2.5588     4.8354   17 H    0 0 0

  33 H    1     0.9872     1.8655    9 O    0 0 0
  33 H    1     1.5656     2.9586   35 H   -1 0 0
  33 H    1     1.7135     3.2381    2 O    0 0 0
  33 H    1     1.9935     3.7671   18 H    0 0 0
  33 H    1     2.0933     3.9558   41 H   -1 0-1
  33 H    1     2.1124     3.9919   20 H    0 0 0

  35 H    1     0.9774     1.8469    9 O    1 0 0
  35 H    1     1.5656     2.9586   33 H    1 0 0
  35 H    1     1.8150     3.4298   14 O    0 0 0
  35 H    1     2.3094     4.3640   41 H    0 0-1
  35 H    1     2.3208     4.3856   42 H    1 1 0
  35 H    1     2.3784     4.4945   23 H    0 0-1

  37 H    1     0.9757     1.8438   11 O    0 0 0
  37 H    1     1.5566     2.9415   39 H    0 0 0
  37 H    1     1.8836     3.5595    4 O    0 0 1
  37 H    1     2.1393     4.0426   24 H    0 0 1
  37 H    1     2.3948     4.5255   27 H    0 0 0
  37 H    1     2.3962     4.5281   22 H    0 0 1

  39 H    1     0.9867     1.8645   11 O    0 0 0
  39 H    1     1.5566     2.9415   37 H    0 0 0
  39 H    1     1.6700     3.1559    7 O    0 0 0
  39 H    1     2.0975     3.9638   29 H    0 0 0
  39 H    1     2.1272     4.0198   19 H    0 0 0
  39 H    1     2.1338     4.0323   31 H    0 0 0

  41 H    1     0.9860     1.8633   13 O    1 0 0
  41 H    1     1.5932     3.0108   43 H    1 0 0
  41 H    1     1.6783     3.1716    9 O    1 0 1
  41 H    1     2.0933     3.9558   33 H    1 0 1
  41 H    1     2.3094     4.3640   35 H    0 0 1
  41 H    1     2.3208     4.3856   36 H    1 0 0

  43 H    1     0.9670     1.8273   13 O    0 0 0
  43 H    1     1.5932     3.0108   41 H   -1 0 0
  43 H    1     2.1972     4.1521   15 O    0 0 0
  43 H    1     2.2213     4.1977   24 H    0 0 1
  43 H    1     2.2754     4.2998   45 H    0 0 0
  43 H    1     2.5630     4.8434   36 H    0 0 0

  45 H    1     0.9798     1.8515   15 O    0 0 0
  45 H    1     1.5694     2.9657   47 H    0 0 0
  45 H    1     1.7970     3.3958    3 O    0 0 0
  45 H    1     2.2339     4.2214   21 H    0 0 0
  45 H    1     2.2754     4.2998   43 H    0 0 0
  45 H    1     2.3422     4.4262   23 H    0 0 0

  47 H    1     0.9669     1.8271   15 O    0 0 0
  47 H    1     1.5694     2.9657   45 H    0 0 0
  47 H    1     2.0985     3.9656    7 O    0 0 0
  47 H    1     2.2800     4.3086   30 H    0 0 0
  47 H    1     2.5873     4.8893   39 H    0 0 0
  47 H    1     2.6182     4.9478   43 H    0 0 0


 SYMMETRY ALLOWED INTERNAL DEGREE(S) OF FREEDOM:  71
 TTTTTTTTTTTTTTTTTTTTTTTTTTTTTT SYMM        TELAPSE        0.39 TCPU        0.09
 TTTTTTTTTTTTTTTTTTTTTTTTTTTTTT INT_SCREEN  TELAPSE        0.39 TCPU        0.10

 DFT PARAMETERS

     ATOM       ELECTRONS   NET CHARGE   R(ANGSTROM)
   1   8  O       8.0000      0.0000     0.74000000
  17   1  H       1.0000      0.0000     1.11000000

 SIZE OF GRID=     531640
 TTTTTTTTTTTTTTTTTTTTTTTTTTTTTT MAKE_GRID2  TELAPSE        7.86 TCPU        7.55
 BECKE WEIGHT FUNCTION
 RADSAFE =     2.00
 TOLERANCES - DENSITY:10**- 6; POTENTIAL:10**- 9; GRID WGT:10**-14

 RADIAL INTEGRATION  - INTERVALS (POINTS,UPPER LIMIT):            1( 75,  4.0*R)

 ANGULAR INTEGRATION - INTERVALS (ACCURACY LEVEL [N. POINTS] UPPER LIMIT):
  1(  4[  86]   0.2)  2(  8[ 194]   0.5)  3( 12[ 350]   0.9)  4( 16[ 974]   3.5)
  5( 12[ 350]9999.0)
 TTTTTTTTTTTTTTTTTTTTTTTTTTTTTT INT_CALC    TELAPSE        7.88 TCPU        7.58
 EEEEEEEEEE INT_CALC TERMINATION  DATE 25 03 2019 TIME 17:52:49.1

 *******************************************************************************
 !drive by JGB                                                                   
 CRYSTAL - SCF - TYPE OF CALCULATION :  RESTRICTED CLOSED SHELL
 *******************************************************************************

 CAPPA:IS1  2;IS2  2;IS3  1; K PTS MONK NET   4; SYMMOPS:K SPACE   4;G SPACE   2

 TTTTTTTTTTTTTTTTTTTTTTTTTTTTTT SDIK        TELAPSE        8.10 TCPU        7.80

 AAAAAAAAAAAAAAAAAAAAAAAAAAAAAAAAAAAAAAAAAAAAAAAAAAAAAAAAAAAAAAAAAAAAAAAAAAAAAAA
         ATOMIC WAVEFUNCTION(S)


 NUCLEAR CHARGE  8.0  SYMMETRY SPECIES            S    P
 N. ELECTRONS    8.0  NUMBER OF PRIMITIVE GTOS    8    4
                      NUMBER OF CONTRACTED GTOS   4    2
                      NUMBER OF CLOSED SHELLS     2    0
                      OPEN SHELL OCCUPATION       0    4

  ZNUC SCFIT  TOTAL HF ENERGY   KINETIC ENERGY   VIRIAL THEOREM ACCURACY
   8.0  12   -7.477373220E+01  7.477365593E+01 -2.000001020E+00  3.8E-06

 NUCLEAR CHARGE  1.0  SYMMETRY SPECIES            S
 N. ELECTRONS    1.0  NUMBER OF PRIMITIVE GTOS    4
                      NUMBER OF CONTRACTED GTOS   2
                      NUMBER OF CLOSED SHELLS     0
                      OPEN SHELL OCCUPATION       1

  ZNUC SCFIT  TOTAL HF ENERGY   KINETIC ENERGY   VIRIAL THEOREM ACCURACY
   1.0   1   -4.977266687E-01  5.190767460E-01 -1.958869132E+00  1.8E-16

 AAAAAAAAAAAAAAAAAAAAAAAAAAAAAAAAAAAAAAAAAAAAAAAAAAAAAAAAAAAAAAAAAAAAAAAAAAAAAAA

 CHARGE NORMALIZATION FACTOR   1.00000000
 TOTAL ATOMIC CHARGES:
   8.0000000   8.0000000   8.0000000   8.0000000   8.0000000   8.0000000
   8.0000000   8.0000000   8.0000000   8.0000000   8.0000000   8.0000000
   8.0000000   8.0000000   8.0000000   8.0000000   1.0000000   1.0000000
   1.0000000   1.0000000   1.0000000   1.0000000   1.0000000   1.0000000
   1.0000000   1.0000000   1.0000000   1.0000000   1.0000000   1.0000000
   1.0000000   1.0000000   1.0000000   1.0000000   1.0000000   1.0000000
   1.0000000   1.0000000   1.0000000   1.0000000   1.0000000   1.0000000
   1.0000000   1.0000000   1.0000000   1.0000000   1.0000000   1.0000000
 TTTTTTTTTTTTTTTTTTTTTTTTTTTTTT MOQGAD      TELAPSE        8.28 TCPU        7.97
 TTTTTTTTTTTTTTTTTTTTTTTTTTTTTT SHELLXN     TELAPSE       25.13 TCPU       24.83
 TTTTTTTTTTTTTTTTTTTTTTTTTTTTTT MONMO3      TELAPSE       26.23 TCPU       25.92
 NUMERICALLY INTEGRATED DENSITY    159.9999819195
 TTTTTTTTTTTTTTTTTTTTTTTTTTTTTT NUMDFT      TELAPSE       27.26 TCPU       26.95
 CYC   0 ETOT(AU) -1.221007334648E+03 DETOT -1.22E+03 tst  0.00E+00 PX  1.00E+00
 TTTTTTTTTTTTTTTTTTTTTTTTTTTTTT DIIS        TELAPSE       27.27 TCPU       26.96
 TTTTTTTTTTTTTTTTTTTTTTTTTTTTTT FDIK        TELAPSE       27.77 TCPU       27.44
 INSULATING STATE
 TOP OF VALENCE BANDS -    BAND     80; K    1; EIG -4.1227528E-01 AU
 BOTTOM OF VIRTUAL BANDS - BAND     81; K    1; EIG -9.2006571E-02 AU
 DIRECT ENERGY BAND GAP:   8.7150 eV
 TTTTTTTTTTTTTTTTTTTTTTTTTTTTTT PDIG        TELAPSE       27.78 TCPU       27.46
 CHARGE NORMALIZATION FACTOR   1.00000000
 TOTAL ATOMIC CHARGES:
   9.0580587   9.0580587   9.0789993   9.0789993   9.0798189   9.0798189
   9.0488007   9.0488007   9.0637734   9.0637734   9.0805596   9.0805596
   9.0582292   9.0582292   9.0723824   9.0723824   0.4694069   0.4694069
   0.4665902   0.4665902   0.4648798   0.4648798   0.4672089   0.4672089
   0.4641788   0.4641788   0.4645386   0.4645386   0.4661284   0.4661284
   0.4636409   0.4636409   0.4704084   0.4704084   0.4601619   0.4601619
   0.4699078   0.4699078   0.4757359   0.4757359   0.4615337   0.4615337
   0.4643128   0.4643128   0.4663570   0.4663570   0.4643878   0.4643878
 TTTTTTTTTTTTTTTTTTTTTTTTTTTTTT MOQGAD      TELAPSE       27.79 TCPU       27.46
 TTTTTTTTTTTTTTTTTTTTTTTTTTTTTT SHELLXN     TELAPSE       45.21 TCPU       44.87
 TTTTTTTTTTTTTTTTTTTTTTTTTTTTTT MONMO3      TELAPSE       46.25 TCPU       45.91
 NUMERICALLY INTEGRATED DENSITY    159.9999737429
 TTTTTTTTTTTTTTTTTTTTTTTTTTTTTT NUMDFT      TELAPSE       48.39 TCPU       48.05
 CYC   1 ETOT(AU) -1.220264175585E+03 DETOT  7.43E-01 tst  0.00E+00 PX  1.00E+00
 TTTTTTTTTTTTTTTTTTTTTTTTTTTTTT DIIS        TELAPSE       48.42 TCPU       48.07
 DIIS TEST: 0.17498E+01 AT SCF   CYCLE   1 - MIX   30 %
 TTTTTTTTTTTTTTTTTTTTTTTTTTTTTT FDIK        TELAPSE       48.48 TCPU       48.14
 INSULATING STATE
 TOP OF VALENCE BANDS -    BAND     80; K    1; EIG -3.1127244E-01 AU
 BOTTOM OF VIRTUAL BANDS - BAND     81; K    1; EIG -3.1952251E-02 AU
 DIRECT ENERGY BAND GAP:   7.6007 eV
 TTTTTTTTTTTTTTTTTTTTTTTTTTTTTT PDIG        TELAPSE       48.49 TCPU       48.15
 CHARGE NORMALIZATION FACTOR   1.00000000
 TOTAL ATOMIC CHARGES:
   8.8405792   8.8405792   8.8522625   8.8522625   8.8507738   8.8507738
   8.8312327   8.8312327   8.8609302   8.8609302   8.8472067   8.8472067
   8.8404343   8.8404343   8.8232607   8.8232607   0.5769899   0.5769899
   0.5828026   0.5828026   0.5723384   0.5723384   0.5785559   0.5785559
   0.5760770   0.5760770   0.5766478   0.5766478   0.5695508   0.5695508
   0.5808220   0.5808220   0.5747408   0.5747408   0.5633956   0.5633956
   0.5917902   0.5917902   0.5916185   0.5916185   0.5604965   0.5604965
   0.5855455   0.5855455   0.5804002   0.5804002   0.5915483   0.5915483
 TTTTTTTTTTTTTTTTTTTTTTTTTTTTTT MOQGAD      TELAPSE       48.50 TCPU       48.16
 TTTTTTTTTTTTTTTTTTTTTTTTTTTTTT SHELLXN     TELAPSE       65.74 TCPU       65.39
 TTTTTTTTTTTTTTTTTTTTTTTTTTTTTT MONMO3      TELAPSE       66.70 TCPU       66.35
 NUMERICALLY INTEGRATED DENSITY    159.9999573648
 TTTTTTTTTTTTTTTTTTTTTTTTTTTTTT NUMDFT      TELAPSE       68.78 TCPU       68.43
 CYC   2 ETOT(AU) -1.220616184706E+03 DETOT -3.52E-01 tst  1.89E-03 PX  1.36E-01
 TTTTTTTTTTTTTTTTTTTTTTTTTTTTTT DIIS        TELAPSE       70.34 TCPU       69.99
 DIIS TEST: 0.39086E+00 AT SCF   CYCLE   2 - DIIS ACTIVE - HISTORY:     2 CYCLES
 TTTTTTTTTTTTTTTTTTTTTTTTTTTTTT FDIK        TELAPSE       70.57 TCPU       70.06
 INSULATING STATE
 TOP OF VALENCE BANDS -    BAND     80; K    1; EIG -3.5889808E-01 AU
 BOTTOM OF VIRTUAL BANDS - BAND     81; K    1; EIG -3.4732326E-02 AU
 DIRECT ENERGY BAND GAP:   8.8210 eV
 TTTTTTTTTTTTTTTTTTTTTTTTTTTTTT PDIG        TELAPSE       70.59 TCPU       70.07
 CHARGE NORMALIZATION FACTOR   1.00000000
 TOTAL ATOMIC CHARGES:
   8.9163416   8.9163416   8.9299721   8.9299721   8.9286638   8.9286638
   8.9030722   8.9030722   8.9291960   8.9291960   8.9270472   8.9270472
   8.9134700   8.9134700   8.9135321   8.9135321   0.5388301   0.5388301
   0.5437798   0.5437798   0.5348620   0.5348620   0.5396087   0.5396087
   0.5374190   0.5374190   0.5365038   0.5365038   0.5316518   0.5316518
   0.5444282   0.5444282   0.5390614   0.5390614   0.5298779   0.5298779
   0.5501973   0.5501973   0.5510899   0.5510899   0.5258393   0.5258393
   0.5474845   0.5474845   0.5370103   0.5370103   0.5510609   0.5510609
 TTTTTTTTTTTTTTTTTTTTTTTTTTTTTT MOQGAD      TELAPSE       70.59 TCPU       70.08
 TTTTTTTTTTTTTTTTTTTTTTTTTTTTTT SHELLXN     TELAPSE       88.09 TCPU       87.46
 TTTTTTTTTTTTTTTTTTTTTTTTTTTTTT MONMO3      TELAPSE       89.18 TCPU       88.55
 NUMERICALLY INTEGRATED DENSITY    159.9999632437
 TTTTTTTTTTTTTTTTTTTTTTTTTTTTTT NUMDFT      TELAPSE       91.28 TCPU       90.65
 CYC   3 ETOT(AU) -1.220718972860E+03 DETOT -1.03E-01 tst  2.26E-04 PX  4.99E-02
 TTTTTTTTTTTTTTTTTTTTTTTTTTTTTT DIIS        TELAPSE       91.31 TCPU       90.67
 DIIS TEST: 0.22364E-02 AT SCF   CYCLE   3 - DIIS ACTIVE - HISTORY:     3 CYCLES
 TTTTTTTTTTTTTTTTTTTTTTTTTTTTTT FDIK        TELAPSE       91.37 TCPU       90.73
 INSULATING STATE
 TOP OF VALENCE BANDS -    BAND     80; K    1; EIG -3.5612495E-01 AU
 BOTTOM OF VIRTUAL BANDS - BAND     81; K    1; EIG -3.1981537E-02 AU
 DIRECT ENERGY BAND GAP:   8.8204 eV
 TTTTTTTTTTTTTTTTTTTTTTTTTTTTTT PDIG        TELAPSE       91.38 TCPU       90.74
 CHARGE NORMALIZATION FACTOR   1.00000000
 TOTAL ATOMIC CHARGES:
   8.9143312   8.9143312   8.9276140   8.9276140   8.9243757   8.9243757
   8.9024415   8.9024415   8.9319141   8.9319141   8.9238522   8.9238522
   8.9114102   8.9114102   8.9004271   8.9004271   0.5398896   0.5398896
   0.5447417   0.5447417   0.5358913   0.5358913   0.5407908   0.5407908
   0.5395123   0.5395123   0.5385691   0.5385691   0.5338157   0.5338157
   0.5453786   0.5453786   0.5385155   0.5385155   0.5297127   0.5297127
   0.5517094   0.5517094   0.5516575   0.5516575   0.5263214   0.5263214
   0.5494213   0.5494213   0.5415812   0.5415812   0.5561261   0.5561261
 TTTTTTTTTTTTTTTTTTTTTTTTTTTTTT MOQGAD      TELAPSE       91.39 TCPU       90.75
 TTTTTTTTTTTTTTTTTTTTTTTTTTTTTT SHELLXN     TELAPSE      108.78 TCPU      108.09
 TTTTTTTTTTTTTTTTTTTTTTTTTTTTTT MONMO3      TELAPSE      109.84 TCPU      109.15
 NUMERICALLY INTEGRATED DENSITY    159.9999628351
 TTTTTTTTTTTTTTTTTTTTTTTTTTTTTT NUMDFT      TELAPSE      112.22 TCPU      111.53
 CYC   4 ETOT(AU) -1.220719318300E+03 DETOT -3.45E-04 tst  1.45E-06 PX  6.03E-03
 TTTTTTTTTTTTTTTTTTTTTTTTTTTTTT DIIS        TELAPSE      112.26 TCPU      111.57
 DIIS TEST: 0.35604E-03 AT SCF   CYCLE   4 - DIIS ACTIVE - HISTORY:     4 CYCLES
 TTTTTTTTTTTTTTTTTTTTTTTTTTTTTT FDIK        TELAPSE      112.31 TCPU      111.61
 INSULATING STATE
 TOP OF VALENCE BANDS -    BAND     80; K    1; EIG -3.5623842E-01 AU
 BOTTOM OF VIRTUAL BANDS - BAND     81; K    1; EIG -3.1724666E-02 AU
 DIRECT ENERGY BAND GAP:   8.8305 eV
 TTTTTTTTTTTTTTTTTTTTTTTTTTTTTT PDIG        TELAPSE      112.32 TCPU      111.62
 CHARGE NORMALIZATION FACTOR   1.00000000
 TOTAL ATOMIC CHARGES:
   8.9134825   8.9134825   8.9267305   8.9267305   8.9250967   8.9250967
   8.8995114   8.8995114   8.9271313   8.9271313   8.9241114   8.9241114
   8.9104829   8.9104829   8.9085301   8.9085301   0.5402898   0.5402898
   0.5450931   0.5450931   0.5364912   0.5364912   0.5411757   0.5411757
   0.5392949   0.5392949   0.5383122   0.5383122   0.5338044   0.5338044
   0.5462107   0.5462107   0.5400999   0.5400999   0.5312845   0.5312845
   0.5517380   0.5517380   0.5520469   0.5520469   0.5270427   0.5270427
   0.5494943   0.5494943   0.5390538   0.5390538   0.5534911   0.5534911
 TTTTTTTTTTTTTTTTTTTTTTTTTTTTTT MOQGAD      TELAPSE      112.33 TCPU      111.63
 TTTTTTTTTTTTTTTTTTTTTTTTTTTTTT SHELLXN     TELAPSE      129.75 TCPU      128.95
 TTTTTTTTTTTTTTTTTTTTTTTTTTTTTT MONMO3      TELAPSE      130.78 TCPU      129.99
 NUMERICALLY INTEGRATED DENSITY    159.9999629697
 TTTTTTTTTTTTTTTTTTTTTTTTTTTTTT NUMDFT      TELAPSE      132.89 TCPU      132.08
 CYC   5 ETOT(AU) -1.220719360151E+03 DETOT -4.19E-05 tst  7.63E-07 PX  3.84E-03
 TTTTTTTTTTTTTTTTTTTTTTTTTTTTTT DIIS        TELAPSE      132.92 TCPU      132.12
 DIIS TEST: 0.14667E-03 AT SCF   CYCLE   5 - DIIS ACTIVE - HISTORY:     5 CYCLES
 TTTTTTTTTTTTTTTTTTTTTTTTTTTTTT FDIK        TELAPSE      132.98 TCPU      132.16
 INSULATING STATE
 TOP OF VALENCE BANDS -    BAND     80; K    1; EIG -3.5614770E-01 AU
 BOTTOM OF VIRTUAL BANDS - BAND     81; K    1; EIG -3.1661653E-02 AU
 DIRECT ENERGY BAND GAP:   8.8297 eV
 TTTTTTTTTTTTTTTTTTTTTTTTTTTTTT PDIG        TELAPSE      133.00 TCPU      132.18
 CHARGE NORMALIZATION FACTOR   1.00000000
 TOTAL ATOMIC CHARGES:
   8.9137514   8.9137514   8.9272764   8.9272764   8.9246995   8.9246995
   8.9011696   8.9011696   8.9292204   8.9292204   8.9238721   8.9238721
   8.9107099   8.9107099   8.9047625   8.9047625   0.5401650   0.5401650
   0.5450388   0.5450388   0.5361470   0.5361470   0.5410063   0.5410063
   0.5393255   0.5393255   0.5384124   0.5384124   0.5336333   0.5336333
   0.5457837   0.5457837   0.5394576   0.5394576   0.5305850   0.5305850
   0.5517685   0.5517685   0.5519589   0.5519589   0.5267609   0.5267609
   0.5495575   0.5495575   0.5401622   0.5401622   0.5547754   0.5547754
 TTTTTTTTTTTTTTTTTTTTTTTTTTTTTT MOQGAD      TELAPSE      133.00 TCPU      132.18
 TTTTTTTTTTTTTTTTTTTTTTTTTTTTTT SHELLXN     TELAPSE      150.48 TCPU      149.61
 TTTTTTTTTTTTTTTTTTTTTTTTTTTTTT MONMO3      TELAPSE      151.56 TCPU      150.69
 NUMERICALLY INTEGRATED DENSITY    159.9999629003
 TTTTTTTTTTTTTTTTTTTTTTTTTTTTTT NUMDFT      TELAPSE      153.67 TCPU      152.79
 CYC   6 ETOT(AU) -1.220719391654E+03 DETOT -3.15E-05 tst  1.15E-07 PX  1.74E-03
 TTTTTTTTTTTTTTTTTTTTTTTTTTTTTT DIIS        TELAPSE      153.69 TCPU      152.82
 DIIS TEST: 0.54663E-05 AT SCF   CYCLE   6 - DIIS ACTIVE - HISTORY:     6 CYCLES
 TTTTTTTTTTTTTTTTTTTTTTTTTTTTTT FDIK        TELAPSE      153.75 TCPU      152.83
 INSULATING STATE
 TOP OF VALENCE BANDS -    BAND     80; K    1; EIG -3.5612844E-01 AU
 BOTTOM OF VIRTUAL BANDS - BAND     81; K    1; EIG -3.1641676E-02 AU
 DIRECT ENERGY BAND GAP:   8.8297 eV
 TTTTTTTTTTTTTTTTTTTTTTTTTTTTTT PDIG        TELAPSE      153.76 TCPU      152.85
 CHARGE NORMALIZATION FACTOR   1.00000000
 TOTAL ATOMIC CHARGES:
   8.9137569   8.9137569   8.9270107   8.9270107   8.9247496   8.9247496
   8.9005416   8.9005416   8.9290315   8.9290315   8.9239755   8.9239755
   8.9108073   8.9108073   8.9051740   8.9051740   0.5401695   0.5401695
   0.5450188   0.5450188   0.5362542   0.5362542   0.5410697   0.5410697
   0.5393357   0.5393357   0.5384126   0.5384126   0.5338143   0.5338143
   0.5459809   0.5459809   0.5395048   0.5395048   0.5306430   0.5306430
   0.5517738   0.5517738   0.5519662   0.5519662   0.5267471   0.5267471
   0.5495187   0.5495187   0.5400848   0.5400848   0.5546588   0.5546588
 TTTTTTTTTTTTTTTTTTTTTTTTTTTTTT MOQGAD      TELAPSE      153.77 TCPU      152.85
 TTTTTTTTTTTTTTTTTTTTTTTTTTTTTT SHELLXN     TELAPSE      171.18 TCPU      170.20
 TTTTTTTTTTTTTTTTTTTTTTTTTTTTTT MONMO3      TELAPSE      172.23 TCPU      171.26
 NUMERICALLY INTEGRATED DENSITY    159.9999629047
 TTTTTTTTTTTTTTTTTTTTTTTTTTTTTT NUMDFT      TELAPSE      174.34 TCPU      173.35
 CYC   7 ETOT(AU) -1.220719392295E+03 DETOT -6.41E-07 tst  3.27E-09 PX  2.79E-04
 TTTTTTTTTTTTTTTTTTTTTTTTTTTTTT DIIS        TELAPSE      174.36 TCPU      173.37
 DIIS TEST: 0.64738E-06 AT SCF   CYCLE   7 - DIIS ACTIVE - HISTORY:     7 CYCLES
 TTTTTTTTTTTTTTTTTTTTTTTTTTTTTT FDIK        TELAPSE      174.41 TCPU      173.39
 INSULATING STATE
 TOP OF VALENCE BANDS -    BAND     80; K    1; EIG -3.5613922E-01 AU
 BOTTOM OF VIRTUAL BANDS - BAND     81; K    1; EIG -3.1640478E-02 AU
 DIRECT ENERGY BAND GAP:   8.8301 eV
 TTTTTTTTTTTTTTTTTTTTTTTTTTTTTT PDIG        TELAPSE      174.43 TCPU      173.40
 CHARGE NORMALIZATION FACTOR   1.00000000
 TOTAL ATOMIC CHARGES:
   8.9136769   8.9136769   8.9271710   8.9271710   8.9246855   8.9246855
   8.9009344   8.9009344   8.9289321   8.9289321   8.9238343   8.9238343
   8.9106287   8.9106287   8.9051430   8.9051430   0.5402045   0.5402045
   0.5450635   0.5450635   0.5362200   0.5362200   0.5410458   0.5410458
   0.5393581   0.5393581   0.5384376   0.5384376   0.5336898   0.5336898
   0.5458595   0.5458595   0.5395483   0.5395483   0.5306947   0.5306947
   0.5517940   0.5517940   0.5519717   0.5519717   0.5268097   0.5268097
   0.5495821   0.5495821   0.5400643   0.5400643   0.5546505   0.5546505
 TTTTTTTTTTTTTTTTTTTTTTTTTTTTTT MOQGAD      TELAPSE      174.43 TCPU      173.41
 TTTTTTTTTTTTTTTTTTTTTTTTTTTTTT SHELLXN     TELAPSE      191.87 TCPU      190.81
 +++ ENERGIES IN A.U. +++
 ::: EXT EL-POLE                                  -1.3117996697005E+03
 ::: EXT EL-SPHEROPOLE                             1.5746056883375E+01
 ::: BIELET ZONE E-E                               1.6259338377294E+03
 ::: TOTAL E-E                                     3.2988022491221E+02
 ::: TOTAL E-N + N-E                              -2.4287271467560E+03
 ::: TOTAL N-N                                    -2.4331670377859E+02
 ::: KINETIC ENERGY                                1.2129529897314E+03
 ::: PSEUDO TOTAL   ENERGY                        -1.1292106358910E+03
 ::: VIRIAL COEFFICIENT                            1.0357542713602E+00
 TTTTTTTTTTTTTTTTTTTTTTTTTTTTTT MONMO3      TELAPSE      192.99 TCPU      191.93
 NUMERICALLY INTEGRATED DENSITY    159.9999629051
 TTTTTTTTTTTTTTTTTTTTTTTTTTTTTT NUMDFT      TELAPSE      195.11 TCPU      194.05
 CYC   8 ETOT(AU) -1.220719392391E+03 DETOT -9.59E-08 tst  1.19E-09 PX  2.79E-04

 == SCF ENDED - CONVERGENCE ON ENERGY      E(AU) -1.2207193923909E+03 CYCLES   8


 ENERGY EXPRESSION=HARTREE+FOCK EXCH*0.00000+(HSE-3c     EXCH)*1.00000+PBEh-3c    CORR


 TOTAL ENERGY(DFT)(AU)(  8) -1.2207193923909E+03 DE-9.6E-08 tester 1.2E-09
 TTTTTTTTTTTTTTTTTTTTTTTTTTTTTT EDFT        TELAPSE      195.11 TCPU      194.05
 
 INFORMATION **** DFTD3 ENERGY **** CALCULATE DFTD3 ENERGY

           DFT-D V3(BJ)
 DF                                         hse3c     
 parameters
 s6       :    1.0000
 s8       :    0.0000
 a1       :    0.4411
 a2       :    4.5182
 k1 k3    :   16.0000   -4.0000
 Cutoff   :   50.2022
 CN-Cutoff:   21.1671
 
 Edisp /kcal,au:   -31.5244 -0.05023737

 E6    /kcal :   -33.9009
 E8    /kcal :     0.0000
 E6(ABC) "   :   2.376461
 
 INFORMATION **** DFTD3 ENERGY **** NORMAL TERMINATION OF DFTD3 MODULE

 GCP ENERGY CALCULATION
  level           hse3c               basis:hse3c
  Nbf            304
  Atoms           48

  Parameters: 
  sigma     1.0000
  eta       1.4086
  alpha     0.2908
  beta      1.9526

  dmp_scal      4.0000
  dmp_exp       6.0000
 cutoffs: 
   distance [bohr] 60.0
   noise    [a.u.] 2.2E-16
 SR-damping   T
 ** gCP correction **
  Egcp:        0.2004257799 / (a.u.) ||     125.7691 / (kcal/mol)
 INFORMATION **** GCP **** NORMAL TERMINATION OF GCP MODULE

 *******************************************************************************

 DFT-D3-GCP DISPERSION AND COUNTERPOISE CORRECTION

 D3 DISPERSION ENERGY (AU)      -5.0237373676922E-02
 GCP ENERGY (AU)                 2.0042577991268E-01
 TOTAL ENERGY + DISP + GCP (AU) -1.2205692039847E+03

 *******************************************************************************

 EIGENVECTORS IN FORTRAN UNIT  8
 TTTTTTTTTTTTTTTTTTTTTTTTTTTTTT END         TELAPSE      196.67 TCPU      195.51
 EEEEEEEEEE TERMINATION  DATE 25 03 2019 TIME 17:55:57.9
NODE    0 CPU TIME =       195.507
NODE    1 CPU TIME =       195.344
NODE    2 CPU TIME =       195.590
NODE    3 CPU TIME =       195.293
NODE    4 CPU TIME =       195.598
NODE    5 CPU TIME =       195.112
NODE    6 CPU TIME =       193.909
NODE    7 CPU TIME =       193.938
    TOTAL CPU TIME =      1560.291
