 PROCESS            4  OF            8  WORKING
 PROCESS            3  OF            8  WORKING
 PROCESS            1  OF            8  WORKING
 PROCESS            2  OF            8  WORKING
 PROCESS            5  OF            8  WORKING
 PROCESS            7  OF            8  WORKING
 PROCESS            6  OF            8  WORKING
 PROCESS            0  OF            8  WORKING

         
 *******************************************************************************
 *                                                                             *
 *                               CRYSTAL17                                     *
 *                      public : 1.0.1 - Feb 1st, 2017                         *
 *                       HTTP://WWW.CRYSTAL.UNITO.IT                           *
 *                                                                             *
 *                              MAIN AUTHORS                                   *
 *                                                                             *
 *  R. DOVESI(1,11), V.R. SAUNDERS(2), C. ROETTI(1,11), R. ORLANDO(1,11),      *
 *  C.M. ZICOVICH-WILSON(1,3), F. PASCALE(4), B. CIVALLERI(1,11),              *
 *  K. DOLL(5), N.M. HARRISON(2,6), I.J. BUSH(7), Ph. D'ARCO(8),               *
 *  M. LLUNELL(9), M. CAUSA'(10), Y. NOEL(8), L. MASCHIO(1,11), A. ERBA(1,11)  *
 *  M. RE'RAT(14), S. CASASSA(1,11)                                            *
 *                                                                             *
 *        CONTRIBUTIONS TO THE CODE HAVE ALSO BEEN GIVEN BY                    *
 *                                                                             *
 *  M. FERRABONE(1,11), M. DE LA PIERRE(1,11), M. FERRERO(1,11),               *
 *  J. BAIMA(1,11), E. ALBANESE(1,11), M.F. PEINTINGER(12), R. BAST(13),       *
 *  B. KIRTMAN(15), V. LACIVITA(1,11), R. DEMICHELIS(1,16)                     *
 *  G. BRANDEBURG(17), S. SALUSTRO(1,11), G. SANSONE(1,11)                     *
 *  M.T. RUGGIERO(18)                                                          *
 *                                                                             *
 * (1) THEORETICAL CHEMISTRY GROUP - UNIVERSITA' DI TORINO - TORINO (ITALY)    *

 * (2) COMPUTATIONAL SCIENCE & ENGINEERING DEPARTMENT - STFC DARESBURY (UK)    *
 * (3) UNIVERSIDAD AUTONOMA DEL ESTADO DE MORELOS - CUERNAVACA (MEXICO)        *
 * (4) UNIVERSITE' DE LORRAINE - NANCY (FRANCE)                                *
 * (5) UNIVERSITAET STUTTGART- STUTTGART (GERMANY)                             *
 * (6) IMPERIAL COLLEGE - LONDON (UK)                                          *
 * (7) OXFORD E-RESEARCH CENTRE - OXFORD (UK)                                  *
 * (8) UPMC - SORBONNE UNIVERSITES - PARIS (FRANCE)                            *
 * (9) UNIVERSIDAD DE BARCELONA - BARCELONA (SPAIN)                            *
 *(10) UNIVERSITA' DI NAPOLI "FEDERICO II" - NAPOLI (ITALY)                    *
 *(11) NIS - NANOSTRUCTURED INTERFACES AND SURFACES - TORINO (ITALY)           *
 *(12) MPI FUER CHEMISCHE ENERGIEKONVERSION - MUELHEIM AN DER RUHR (GERMANY)   *
 *(13) UNIVERSITY OF TROMSO - TROMSO (NORWAY)                                  *
 *(14) UNIVERSITE' DE PAU ET DES PAYS DE L'ADOUR - PAU (FRANCE)                *
 *(15) UNIVERSITY OF CALIFORNIA SANTA BARBARA - SANTA BARBARA (USA)            *
 *(16) CURTIN UNIVERSITY - PERTH (AUSTRALIA)                                   *
 *(17) UNIVERSITY COLLEGE LONDON - LONDON (UK)                                 *
 *(18) CAMBRIDGE UNIVERSITY - CAMBRIDGE (UK)                                   *
 *                                                                             *
 *******************************************************************************
 EEEEEEEEEE STARTING  DATE 25 03 2019 TIME 17:48:02.8
 !drive by JGB                                                                   

 CRYSTAL CALCULATION
 (INPUT ACCORDING TO THE INTERNATIONAL TABLES FOR X-RAY CRYSTALLOGRAPHY)
 CRYSTAL FAMILY                       :  HEXAGONAL   
 CRYSTAL CLASS  (GROTH - 1921)        :  HEXAGONAL PYRAMIDAL                  

 SPACE GROUP (NONCENTROSYMMETRIC)     :  P 61            

 LATTICE PARAMETERS  (ANGSTROMS AND DEGREES) - CONVENTIONAL CELL
        A           B           C        ALPHA        BETA       GAMMA
    12.32961    12.32961     4.50241    90.00000    90.00000   120.00000


 NUMBER OF IRREDUCIBLE ATOMS IN THE CONVENTIONAL CELL:    6

 INPUT COORDINATES

 ATOM AT. N.              COORDINATES
   1   8     5.450516557961E-01  2.821112678618E-01  4.706257461640E-01
   2   8     5.296355358728E-01  7.129731153100E-02  1.727057342010E-01
   3   1     6.083639254196E-01  3.496280134519E-01  3.459232018359E-01
   4   1     5.134494128020E-01  3.228699378704E-01  6.004656216148E-01
   5   1     5.054967432732E-01  1.302688146173E-01  2.450600248290E-01
   6   1     5.232715583744E-01  2.096153600892E-02  3.471696713553E-01

 *******************************************************************************

 << INFORMATION >>: FROM NOW ON, ALL COORDINATES REFER TO THE PRIMITIVE CELL

 *******************************************************************************

 LATTICE PARAMETERS  (ANGSTROMS AND DEGREES) - PRIMITIVE CELL
       A          B          C        ALPHA      BETA     GAMMA        VOLUME
   12.32961   12.32961    4.50241    90.00000  90.00000 120.00000    592.753615

 COORDINATES OF THE EQUIVALENT ATOMS (FRACTIONAL UNITS)

 N. ATOM EQUIV AT. N.          X                  Y                  Z

   1   1   1    8 O    -4.54948344204E-01  2.82111267862E-01  4.70625746164E-01
   2   1   2    8 O     4.54948344204E-01 -2.82111267862E-01 -2.93742538360E-02
   3   1   3    8 O    -2.82111267862E-01  2.62940387934E-01 -1.96040920503E-01
   4   1   4    8 O    -2.62940387934E-01  4.54948344204E-01  1.37292412831E-01
   5   1   5    8 O     2.62940387934E-01 -4.54948344204E-01 -3.62707587169E-01
   6   1   6    8 O     2.82111267862E-01 -2.62940387934E-01  3.03959079497E-01

   7   2   1    8 O    -4.70364464127E-01  7.12973115310E-02  1.72705734201E-01
   8   2   2    8 O     4.70364464127E-01 -7.12973115310E-02 -3.27294265799E-01
   9   2   3    8 O    -7.12973115310E-02  4.58338224342E-01 -4.93960932466E-01
  10   2   4    8 O    -4.58338224342E-01  4.70364464127E-01 -1.60627599132E-01
  11   2   5    8 O     4.58338224342E-01 -4.70364464127E-01  3.39372400868E-01
  12   2   6    8 O     7.12973115310E-02 -4.58338224342E-01  6.03906753433E-03

  13   3   1    1 H    -3.91636074580E-01  3.49628013452E-01  3.45923201836E-01
  14   3   2    1 H     3.91636074580E-01 -3.49628013452E-01 -1.54076798164E-01
  15   3   3    1 H    -3.49628013452E-01  2.58735911968E-01 -3.20743464831E-01
  16   3   4    1 H    -2.58735911968E-01  3.91636074580E-01  1.25898685026E-02
  17   3   5    1 H     2.58735911968E-01 -3.91636074580E-01 -4.87410131497E-01
  18   3   6    1 H     3.49628013452E-01 -2.58735911968E-01  1.79256535169E-01

  19   4   1    1 H    -4.86550587198E-01  3.22869937870E-01 -3.99534378385E-01
  20   4   2    1 H     4.86550587198E-01 -3.22869937870E-01  1.00465621615E-01
  21   4   3    1 H    -3.22869937870E-01  1.90579474932E-01 -6.62010450519E-02
  22   4   4    1 H    -1.90579474932E-01  4.86550587198E-01  2.67132288281E-01
  23   4   5    1 H     1.90579474932E-01 -4.86550587198E-01 -2.32867711719E-01
  24   4   6    1 H     3.22869937870E-01 -1.90579474932E-01  4.33798954948E-01

  25   5   1    1 H    -4.94503256727E-01  1.30268814617E-01  2.45060024829E-01
  26   5   2    1 H     4.94503256727E-01 -1.30268814617E-01 -2.54939975171E-01
  27   5   3    1 H    -1.30268814617E-01  3.75227928656E-01 -4.21606641838E-01
  28   5   4    1 H    -3.75227928656E-01  4.94503256727E-01 -8.82733085043E-02
  29   5   5    1 H     3.75227928656E-01 -4.94503256727E-01  4.11726691496E-01
  30   5   6    1 H     1.30268814617E-01 -3.75227928656E-01  7.83933581623E-02

  31   6   1    1 H    -4.76728441626E-01  2.09615360089E-02  3.47169671355E-01
  32   6   2    1 H     4.76728441626E-01 -2.09615360089E-02 -1.52830328645E-01
  33   6   3    1 H    -2.09615360089E-02 -4.97689977635E-01 -3.19496995311E-01
  34   6   4    1 H     4.97689977635E-01  4.76728441626E-01  1.38363380220E-02
  35   6   5    1 H    -4.97689977635E-01 -4.76728441626E-01 -4.86163661978E-01
  36   6   6    1 H     2.09615360089E-02  4.97689977635E-01  1.80503004689E-01

 NUMBER OF SYMMETRY OPERATORS         :    6
 *******************************************************************************
 * GEOMETRY EDITING - INPUT COORDINATES ARE GIVEN IN ANGSTROM         
 *******************************************************************************

 GEOMETRY NOW FULLY CONSISTENT WITH THE GROUP

 GCALCO - MAX INDICES DIRECT LATTICE VECTOR    10    10    26
 NO.OF VECTORS CREATED 6999 STARS  414 RMAX   188.33065 BOHR

 GEOMETRY FOR WAVE FUNCTION - DIMENSIONALITY OF THE SYSTEM    3
 (NON PERIODIC DIRECTION: LATTICE PARAMETER FORMALLY SET TO 500)
 *******************************************************************************
 LATTICE PARAMETERS (ANGSTROMS AND DEGREES) - BOHR = 0.5291772083 ANGSTROM
 PRIMITIVE CELL - CENTRING CODE 1/0 VOLUME=   592.753615 - DENSITY  0.605 g/cm^3
         A              B              C           ALPHA      BETA       GAMMA 
    12.32961297    12.32961297     4.50240638    90.000000  90.000000 120.000000
 *******************************************************************************
 ATOMS IN THE ASYMMETRIC UNIT    6 - ATOMS IN THE UNIT CELL:   36
     ATOM                 X/A                 Y/B                 Z/C    
 *******************************************************************************
      1 T   8 O    -4.549483442039E-01  2.821112678618E-01  4.706257461640E-01
      2 F   8 O     4.549483442039E-01 -2.821112678618E-01 -2.937425383600E-02
      3 F   8 O    -2.821112678618E-01  2.629403879343E-01 -1.960409205027E-01
      4 F   8 O    -2.629403879343E-01  4.549483442039E-01  1.372924128307E-01
      5 F   8 O     2.629403879343E-01 -4.549483442039E-01 -3.627075871693E-01
      6 F   8 O     2.821112678618E-01 -2.629403879343E-01  3.039590794973E-01
      7 T   8 O    -4.703644641272E-01  7.129731153100E-02  1.727057342010E-01
      8 F   8 O     4.703644641272E-01 -7.129731153100E-02 -3.272942657990E-01
      9 F   8 O    -7.129731153100E-02  4.583382243418E-01 -4.939609324657E-01
     10 F   8 O    -4.583382243418E-01  4.703644641272E-01 -1.606275991323E-01
     11 F   8 O     4.583382243418E-01 -4.703644641272E-01  3.393724008677E-01
     12 F   8 O     7.129731153100E-02 -4.583382243418E-01  6.039067534333E-03
     13 T   1 H    -3.916360745804E-01  3.496280134519E-01  3.459232018359E-01
     14 F   1 H     3.916360745804E-01 -3.496280134519E-01 -1.540767981641E-01
     15 F   1 H    -3.496280134519E-01  2.587359119677E-01 -3.207434648308E-01
     16 F   1 H    -2.587359119677E-01  3.916360745804E-01  1.258986850257E-02
     17 F   1 H     2.587359119677E-01 -3.916360745804E-01 -4.874101314974E-01
     18 F   1 H     3.496280134519E-01 -2.587359119677E-01  1.792565351692E-01
     19 T   1 H    -4.865505871980E-01  3.228699378704E-01 -3.995343783852E-01
     20 F   1 H     4.865505871980E-01 -3.228699378704E-01  1.004656216148E-01
     21 F   1 H    -3.228699378704E-01  1.905794749316E-01 -6.620104505187E-02
     22 F   1 H    -1.905794749316E-01  4.865505871980E-01  2.671322882815E-01
     23 F   1 H     1.905794749316E-01 -4.865505871980E-01 -2.328677117185E-01
     24 F   1 H     3.228699378704E-01 -1.905794749316E-01  4.337989549481E-01
     25 T   1 H    -4.945032567268E-01  1.302688146173E-01  2.450600248290E-01
     26 F   1 H     4.945032567268E-01 -1.302688146173E-01 -2.549399751710E-01
     27 F   1 H    -1.302688146173E-01  3.752279286559E-01 -4.216066418377E-01
     28 F   1 H    -3.752279286559E-01  4.945032567268E-01 -8.827330850433E-02
     29 F   1 H     3.752279286559E-01 -4.945032567268E-01  4.117266914957E-01
     30 F   1 H     1.302688146173E-01 -3.752279286559E-01  7.839335816233E-02
     31 T   1 H    -4.767284416256E-01  2.096153600892E-02  3.471696713553E-01
     32 F   1 H     4.767284416256E-01 -2.096153600892E-02 -1.528303286447E-01
     33 F   1 H    -2.096153600892E-02 -4.976899776345E-01 -3.194969953114E-01
     34 F   1 H     4.976899776345E-01  4.767284416256E-01  1.383633802197E-02
     35 F   1 H    -4.976899776345E-01 -4.767284416256E-01 -4.861636619780E-01
     36 F   1 H     2.096153600892E-02  4.976899776345E-01  1.805030046886E-01

 T = ATOM BELONGING TO THE ASYMMETRIC UNIT

 ****    6 SYMMOPS - TRANSLATORS IN FRACTIONAL UNITS
 **** MATRICES AND TRANSLATORS IN THE CRYSTALLOGRAPHIC REFERENCE FRAME
   V INV                    ROTATION MATRICES                   TRANSLATORS
   1   1  1.00  0.00  0.00  0.00  1.00  0.00  0.00  0.00  1.00  0.00  0.00  0.00
   2   2 -1.00  0.00  0.00  0.00 -1.00  0.00  0.00  0.00  1.00  0.00  0.00  0.50
   3   4  0.00 -1.00  0.00  1.00 -1.00  0.00  0.00  0.00  1.00  0.00  0.00  0.33
   4   3 -1.00  1.00  0.00 -1.00  0.00  0.00  0.00  0.00  1.00  0.00  0.00  0.67
   5   6  1.00 -1.00  0.00  1.00  0.00  0.00  0.00  0.00  1.00  0.00  0.00  0.17
   6   5 -0.00  1.00  0.00 -1.00  1.00  0.00  0.00  0.00  1.00  0.00  0.00  0.83

 DIRECT LATTICE VECTORS CARTESIAN COMPONENTS (ANGSTROM)
          X                    Y                    Z
   0.106777580509E+02  -0.616480648500E+01   0.000000000000E+00
   0.000000000000E+00   0.123296129700E+02   0.000000000000E+00
   0.000000000000E+00   0.000000000000E+00   0.450240638000E+01


 CARTESIAN COORDINATES - PRIMITIVE CELL
 *******************************************************************************
 *      ATOM          X(ANGSTROM)         Y(ANGSTROM)         Z(ANGSTROM)
 *******************************************************************************
    1     8 O     5.819929705806E+00  1.181847649002E-01  2.118948362121E+00
    2     8 O    -5.819929705806E+00 -1.181847649002E-01 -1.322548278789E-01
    3     8 O    -3.012315861647E+00  4.981114591018E+00 -8.826558912123E-01
    4     8 O    -2.807613844159E+00 -5.099299355918E+00  6.181462354544E-01
    5     8 O     2.807613844159E+00  5.099299355918E+00 -1.633056954546E+00
    6     8 O     3.012315861647E+00 -4.981114591018E+00  1.368547298788E+00
    7     8 O     5.655320107182E+00 -2.386032329256E+00  7.775913995292E-01
    8     8 O    -5.655320107182E+00  2.386032329256E+00 -1.473611790471E+00
    9     8 O    -7.612954422041E-01  6.090667043981E+00 -2.224012853804E+00
   10     8 O    -4.894024664978E+00 -3.704634714724E+00 -7.232107271375E-01
   11     8 O     4.894024664978E+00  3.704634714724E+00  1.527992462863E+00
   12     8 O     7.612954422041E-01 -6.090667043981E+00  2.719033619583E-02
   13     1 H     6.495962802496E+00  5.603322166651E-01  1.557486830936E+00
   14     1 H    -6.495962802496E+00 -5.603322166651E-01 -6.937163590640E-01
   15     1 H    -3.733243335439E+00  5.345502700668E+00 -1.444117422397E+00
   16     1 H    -2.762719467057E+00 -5.905834917333E+00  5.668470426932E-02
   17     1 H     2.762719467057E+00  5.905834917333E+00 -2.194518485731E+00
   18     1 H     3.733243335439E+00 -5.345502700668E+00  8.070857676027E-01
   19     1 H     5.482488601251E+00  8.155451038288E-01 -1.798866134271E+00
   20     1 H    -5.482488601251E+00 -8.155451038288E-01  4.523370557291E-01
   21     1 H    -3.447527078473E+00  4.340201852727E+00 -2.980640076042E-01
   22     1 H    -2.034961522778E+00 -5.155746956556E+00  1.202738119062E+00
   23     1 H     2.034961522778E+00  5.155746956556E+00 -1.048465070938E+00
   24     1 H     3.447527078473E+00 -4.340201852727E+00  1.953139182396E+00
   25     1 H     5.397571920164E+00 -1.510125534785E+00  1.103359819273E+00
   26     1 H    -5.397571920164E+00  1.510125534785E+00 -1.147843370727E+00
   27     1 H    -1.390978884055E+00  5.429497169008E+00 -1.898244434060E+00
   28     1 H    -4.006593036109E+00 -3.919371634223E+00 -3.974423073936E-01
   29     1 H     4.006593036109E+00  3.919371634223E+00  1.853760882606E+00
   30     1 H     1.390978884055E+00 -5.429497169008E+00  3.529587559397E-01
   31     1 H    -5.090390955637E+00  3.197386214764E+00  1.563098943253E+00
   32     1 H     5.090390955637E+00 -3.197386214764E+00 -6.881042467474E-01
   33     1 H    -2.238222098774E-01 -6.007100990158E+00 -1.438505310081E+00
   34     1 H     5.314213165514E+00  2.809714775394E+00  6.229681658594E-02
   35     1 H    -5.314213165514E+00 -2.809714775394E+00 -2.188906373414E+00
   36     1 H     2.238222098774E-01  6.007100990158E+00  8.126978799193E-01

 *******************************************************************************
 STARTING BASIS SET HANDLING 
 *******************************************************************************

 Loading internal basis set: DEF2-MSVP           

 Please cite in your publication:
 Fully Optimized Contracted Gaussian Basis Sets for Atoms Li to Kr. A. Schäfer, 
 H. Horn and R. Ahlrichs; J. Chem. Phys. 97, 2571 (1992).                       
                                                                                
                    
 S. Grimme, J. G. Brandenburg, C. Bannwarth, and A. Hansen, J. Chem. Phys., 143,
  054107 (2015).                                                                
                                                                                
                    

 *******************************************************************************
 LOCAL ATOMIC FUNCTIONS BASIS SET
 *******************************************************************************
   ATOM   X(AU)   Y(AU)   Z(AU)  N. TYPE  EXPONENT  S COEF   P COEF   D/F/G COEF
 *******************************************************************************
   1 O   10.998   0.223   4.004
                                  1 S  
                                         6.773E+03 1.727E-03 0.000E+00 0.000E+00
                                         1.017E+03 1.325E-02 0.000E+00 0.000E+00
                                         2.313E+02 6.603E-02 0.000E+00 0.000E+00
                                         6.501E+01 2.353E-01 0.000E+00 0.000E+00
                                         2.050E+01 5.498E-01 0.000E+00 0.000E+00
                                  2 S  
                                         6.716E+00 1.000E+00 0.000E+00 0.000E+00
                                  3 S  
                                         1.147E+00 1.000E+00 0.000E+00 0.000E+00
                                  4 S  
                                         3.342E-01 1.000E+00 0.000E+00 0.000E+00
                           5-     7 P  
                                         1.769E+01 0.000E+00 4.359E-02 0.000E+00
                                         3.854E+00 0.000E+00 2.318E-01 0.000E+00
                                         1.047E+00 0.000E+00 5.146E-01 0.000E+00
                           8-    10 P  
                                         2.759E-01 0.000E+00 1.000E+00 0.000E+00
                          11-    15 D  
                                         8.000E-01 0.000E+00 0.000E+00 1.000E+00
   2 O  -10.998  -0.223  -0.250
   3 O   -5.692   9.413  -1.668
   4 O   -5.306  -9.636   1.168
   5 O    5.306   9.636  -3.086
   6 O    5.692  -9.413   2.586
   7 O   10.687  -4.509   1.469
   8 O  -10.687   4.509  -2.785
   9 O   -1.439  11.510  -4.203
  10 O   -9.248  -7.001  -1.367
  11 O    9.248   7.001   2.887
  12 O    1.439 -11.510   0.051
  13 H   12.276   1.059   2.943
                                181 S  
                                         1.874E+01 1.968E-02 0.000E+00 0.000E+00
                                         2.826E+00 1.380E-01 0.000E+00 0.000E+00
                                         6.401E-01 4.783E-01 0.000E+00 0.000E+00
                                182 S  
                                         1.756E-01 1.000E+00 0.000E+00 0.000E+00
  14 H  -12.276  -1.059  -1.311
  15 H   -7.055  10.102  -2.729
  16 H   -5.221 -11.160   0.107
  17 H    5.221  11.160  -4.147
  18 H    7.055 -10.102   1.525
  19 H   10.360   1.541  -3.399
  20 H  -10.360  -1.541   0.855
  21 H   -6.515   8.202  -0.563
  22 H   -3.846  -9.743   2.273
  23 H    3.846   9.743  -1.981
  24 H    6.515  -8.202   3.691
  25 H   10.200  -2.854   2.085
  26 H  -10.200   2.854  -2.169
  27 H   -2.629  10.260  -3.587
  28 H   -7.571  -7.407  -0.751
  29 H    7.571   7.407   3.503
  30 H    2.629 -10.260   0.667
  31 H   -9.619   6.042   2.954
  32 H    9.619  -6.042  -1.300
  33 H   -0.423 -11.352  -2.718
  34 H   10.042   5.310   0.118
  35 H  -10.042  -5.310  -4.136
  36 H    0.423  11.352   1.536

 *******************************************************************************
 FINISHED BASIS SET HANDLING 
 *******************************************************************************

 INFORMATION **** SET_MPP **** PCRYSTAL CALCULATION
 INFORMATION **** READM2 **** NEW DEFAULT: FOCK/KS MATRIX MIXING SET TO 30 %
 INFORMATION **** READM2 **** NEW DEFAULT: FULL DIRECT SCF MODE
 INFORMATION **** READM2 **** NEW DEFAULT: COULOMB BIPOLAR BUFFER SET TO 32 Mb
 INFORMATION **** READM2 **** NEW DEFAULT: EXCHANGE BIPOLAR BUFFER SET TO 32 Mb

 *******************************************************************************
 NEW DEFAULT: DFT INTEGRATION GRID INCREASED TO XLGRID
 NEW DEFAULT: DIIS ACCELERATOR ACTIVE
 USE KEYWORD NODIIS TO TURN IT OFF
 *******************************************************************************

 INFORMATION **** RDDFTP **** HSE-3c calculation
 INFORMATION **** RDDFTP **** HSE screened hybrid functional combined with D3 and gCP

PLEASE CITE:
(1) HSE-3c Reference
 J. G. Brandenburg, E. Caldeweyer, and S. Grimme, 
 Phys. Chem. Chem. Phys. 18, 15519 (2016)
(2) DFT-D3 Reference
 S. Grimme, J. Antony, S. Ehrlich,
 and H. Krieg, J. Chem. Phys. 132, 154104 (2010)
(3) gCP Reference
 H. Kruse and S. Grimme J. Chem. Phys, 136, 154101 (2012)
 J. G. Brandenburg, M. Alessio, B. Civalleri, M. F. Peintinger
 T. Bredow, and S. Grimme, J. Phys. Chem. A, 117, 9282 (2013) 

 WARNING **** RDDFTP **** HSE3c-HJS ACTIVE
 RANGE SEPARATION - OMEGA:   0.110000000000000     
 WARNING **** RDDFTP **** HSE-3c has to be combined with def2-mSVP basis set
 WARNING **** RDDFTP **** Note: Harmonic frequencies are scaled by 0.95
 WARNING **** RDDFTP **** as recommended in original publication
 INFORMATION **** BIPOSIZE **** COULOMB BIPOLAR BUFFER SET TO    60000000
 INFORMATION **** EXCHSIZE **** EXCHANGE BIPOLAR BUFFER SIZE SET TO    40000000
 *******************************************************************************
 N. OF ATOMS PER CELL        36  COULOMB OVERLAP TOL         (T1) 10**   -6
 NUMBER OF SHELLS           132  COULOMB PENETRATION TOL     (T2) 10**   -6
 NUMBER OF AO               228  EXCHANGE OVERLAP TOL        (T3) 10**   -6
 N. OF ELECTRONS PER CELL   120  EXCHANGE PSEUDO OVP (F(G))  (T4) 10**   -6
 CORE ELECTRONS PER CELL     24  EXCHANGE PSEUDO OVP (P(G))  (T5) 10**  -12
 N. OF SYMMETRY OPERATORS     6  POLE ORDER IN MONO ZONE                  4
 *******************************************************************************
 TYPE OF CALCULATION :  RESTRICTED CLOSED SHELL
 KOHN-SHAM HAMILTONIAN

 (EXCHANGE)[CORRELATION] FUNCTIONAL:(HSE-3c)[PBEh-3c]

 RANGE-SEPARATED HYBRID FUNCTIONAL 
 OMEGA (SHORT-RANGE)[LONG-RANGE]:(    0.1100)[    0.0000]

 HYBRID EXCHANGE - PERCENTAGE OF FOCK EXCHANGE    42.0000

 CAPPA:IS1  1;IS2  1;IS3  2; K PTS MONK NET   2; SYMMOPS:K SPACE  12;G SPACE   6

 *******************************************************************************
 MAX NUMBER OF SCF CYCLES      50  CONVERGENCE ON DELTAP        10**-16
 WEIGHT OF F(I) IN F(I+1)      30% CONVERGENCE ON ENERGY        10**- 6
 S(K) EIGENV. THRESHOLD  10*10.**-4
 SHRINK. FACT.(MONKH.)    1  1  2  NUMBER OF K POINTS IN THE IBZ      2
 SHRINKING FACTOR(GILAT NET)    1  NUMBER OF K POINTS(GILAT NET)      2
 *******************************************************************************
 *** K POINTS COORDINATES (OBLIQUE COORDINATES IN UNITS OF IS =  1)
   1-R(  0  0  0)   2-R(  0  0  1)

 DIRECT LATTICE VECTORS COMPON. (A.U.)     RECIP. LATTICE VECTORS COMPON. (A.U.) 
        X            Y            Z              X            Y            Z
   20.1780384  -11.6497959    0.0000000      0.3113873    0.0000000    0.0000000
    0.0000000   23.2995919    0.0000000      0.1556937    0.2696693    0.0000000
    0.0000000    0.0000000    8.5083150      0.0000000    0.0000000    0.7384759

 DISK SPACE FOR EIGENVECTORS (FTN 10)      103968 REALS

 SYMMETRY ADAPTION OF THE BLOCH FUNCTIONS ENABLED
 TTTTTTTTTTTTTTTTTTTTTTTTTTTTTT gordsh1     TELAPSE        0.14 TCPU        0.04

 MATRIX SIZE: P(G)   79860, F(G)   17616, P(G) IRR    6824, F(G) IRR    3020
 MAX G-VECTOR INDEX FOR 1- AND 2-ELECTRON INTEGRALS  67

 TTTTTTTTTTTTTTTTTTTTTTTTTTTTTT INPUT       TELAPSE        0.14 TCPU        0.05

 NEIGHBORS OF THE NON-EQUIVALENT ATOMS

 N = NUMBER OF NEIGHBORS AT DISTANCE R
    ATOM  N     R/ANG      R/AU   NEIGHBORS (ATOM LABELS AND CELL INDICES)
   1 O    1     0.9705     1.8340   19 H    0 0 1
   1 O    1     0.9837     1.8590   13 H    0 0 0
   1 O    1     1.7395     3.2872   15 H    1 0 1
   1 O    1     1.9650     3.7133   25 H    0 0 0
   1 O    2     2.7117     5.1243    3 O    1 0 1    4 O    1 1 0
   1 O    1     2.8456     5.3774    7 O    0 0 0

   7 O    1     0.9694     1.8319   25 H    0 0 0
   7 O    1     0.9796     1.8512   31 H    1 0 0
   7 O    1     1.7680     3.3410   32 H    0 0 0
   7 O    1     1.9881     3.7570   21 H    1 0 0
   7 O    2     2.7218     5.1435    8 O    1 0 0    8 O    1 0 1
   7 O    1     2.8456     5.3774    1 O    0 0 0

  13 H    1     0.9837     1.8590    1 O    0 0 0
  13 H    1     1.5510     2.9310   19 H    0 0 1
  13 H    1     1.7395     3.2872    4 O    1 1 0
  13 H    2     2.0873     3.9445   15 H    1 0 1   16 H    1 1 0
  13 H    1     2.2217     4.1985   22 H    1 1 0
  13 H    1     2.3874     4.5115   25 H    0 0 0

  19 H    1     0.9705     1.8340    1 O    0 0-1
  19 H    1     1.5510     2.9310   13 H    0 0-1
  19 H    1     1.9881     3.7570   10 O    1 1 0
  19 H    1     2.2217     4.1985   15 H    1 0 0
  19 H    1     2.3284     4.4001   28 H    1 1 0
  19 H    1     2.5721     4.8605   35 H    1 1 0

  25 H    1     0.9694     1.8319    7 O    0 0 0
  25 H    1     1.5398     2.9099   31 H    1 0 0
  25 H    1     1.9650     3.7133    1 O    0 0 0
  25 H    1     2.3284     4.4001   21 H    1 0 0
  25 H    1     2.3874     4.5115   13 H    0 0 0
  25 H    1     2.4800     4.6866   32 H    0 0 0

  31 H    1     0.9796     1.8512    7 O   -1 0 0
  31 H    1     1.5398     2.9099   25 H   -1 0 0
  31 H    1     1.7680     3.3410    8 O    0 0 1
  31 H    2     2.3168     4.3782   32 H   -1 0 0   32 H   -1 0 1
  31 H    1     2.4800     4.6866   26 H    0 0 1
  31 H    1     2.5721     4.8605   24 H   -1 0 0


 SYMMETRY ALLOWED INTERNAL DEGREE(S) OF FREEDOM:  17
 TTTTTTTTTTTTTTTTTTTTTTTTTTTTTT SYMM        TELAPSE        0.16 TCPU        0.06
 TTTTTTTTTTTTTTTTTTTTTTTTTTTTTT INT_SCREEN  TELAPSE        0.16 TCPU        0.07

 DFT PARAMETERS

     ATOM       ELECTRONS   NET CHARGE   R(ANGSTROM)
   1   8  O       8.0000      0.0000     0.74000000
  13   1  H       1.0000      0.0000     1.11000000

 SIZE OF GRID=     157185
 TTTTTTTTTTTTTTTTTTTTTTTTTTTTTT MAKE_GRID2  TELAPSE        1.10 TCPU        1.00
 BECKE WEIGHT FUNCTION
 RADSAFE =     2.00
 TOLERANCES - DENSITY:10**- 6; POTENTIAL:10**- 9; GRID WGT:10**-14

 RADIAL INTEGRATION  - INTERVALS (POINTS,UPPER LIMIT):            1( 75,  4.0*R)

 ANGULAR INTEGRATION - INTERVALS (ACCURACY LEVEL [N. POINTS] UPPER LIMIT):
  1(  4[  86]   0.2)  2(  8[ 194]   0.5)  3( 12[ 350]   0.9)  4( 16[ 974]   3.5)
  5( 12[ 350]9999.0)
 TTTTTTTTTTTTTTTTTTTTTTTTTTTTTT INT_CALC    TELAPSE        1.12 TCPU        1.02
 EEEEEEEEEE INT_CALC TERMINATION  DATE 25 03 2019 TIME 17:48:03.8

 *******************************************************************************
 !drive by JGB                                                                   
 CRYSTAL - SCF - TYPE OF CALCULATION :  RESTRICTED CLOSED SHELL
 *******************************************************************************

 CAPPA:IS1  1;IS2  1;IS3  2; K PTS MONK NET   2; SYMMOPS:K SPACE  12;G SPACE   6

 TTTTTTTTTTTTTTTTTTTTTTTTTTTTTT SDIK        TELAPSE        1.21 TCPU        1.11

 AAAAAAAAAAAAAAAAAAAAAAAAAAAAAAAAAAAAAAAAAAAAAAAAAAAAAAAAAAAAAAAAAAAAAAAAAAAAAAA
         ATOMIC WAVEFUNCTION(S)


 NUCLEAR CHARGE  8.0  SYMMETRY SPECIES            S    P
 N. ELECTRONS    8.0  NUMBER OF PRIMITIVE GTOS    8    4
                      NUMBER OF CONTRACTED GTOS   4    2
                      NUMBER OF CLOSED SHELLS     2    0
                      OPEN SHELL OCCUPATION       0    4

  ZNUC SCFIT  TOTAL HF ENERGY   KINETIC ENERGY   VIRIAL THEOREM ACCURACY
   8.0  12   -7.477373220E+01  7.477365593E+01 -2.000001020E+00  3.8E-06

 NUCLEAR CHARGE  1.0  SYMMETRY SPECIES            S
 N. ELECTRONS    1.0  NUMBER OF PRIMITIVE GTOS    4
                      NUMBER OF CONTRACTED GTOS   2
                      NUMBER OF CLOSED SHELLS     0
                      OPEN SHELL OCCUPATION       1

  ZNUC SCFIT  TOTAL HF ENERGY   KINETIC ENERGY   VIRIAL THEOREM ACCURACY
   1.0   1   -4.977266687E-01  5.190767460E-01 -1.958869132E+00  1.8E-16

 AAAAAAAAAAAAAAAAAAAAAAAAAAAAAAAAAAAAAAAAAAAAAAAAAAAAAAAAAAAAAAAAAAAAAAAAAAAAAAA

 CHARGE NORMALIZATION FACTOR   1.00000000
 TOTAL ATOMIC CHARGES:
   8.0000000   8.0000000   8.0000000   8.0000000   8.0000000   8.0000000
   8.0000000   8.0000000   8.0000000   8.0000000   8.0000000   8.0000000
   1.0000000   1.0000000   1.0000000   1.0000000   1.0000000   1.0000000
   1.0000000   1.0000000   1.0000000   1.0000000   1.0000000   1.0000000
   1.0000000   1.0000000   1.0000000   1.0000000   1.0000000   1.0000000
   1.0000000   1.0000000   1.0000000   1.0000000   1.0000000   1.0000000
 TTTTTTTTTTTTTTTTTTTTTTTTTTTTTT MOQGAD      TELAPSE        1.25 TCPU        1.15
 TTTTTTTTTTTTTTTTTTTTTTTTTTTTTT SHELLXN     TELAPSE        2.68 TCPU        2.56
 TTTTTTTTTTTTTTTTTTTTTTTTTTTTTT MONMO3      TELAPSE        2.75 TCPU        2.63
 NUMERICALLY INTEGRATED DENSITY    119.9999990902
 TTTTTTTTTTTTTTTTTTTTTTTTTTTTTT NUMDFT      TELAPSE        2.94 TCPU        2.82
 CYC   0 ETOT(AU) -9.157013296163E+02 DETOT -9.16E+02 tst  0.00E+00 PX  1.00E+00
 TTTTTTTTTTTTTTTTTTTTTTTTTTTTTT DIIS        TELAPSE        2.94 TCPU        2.83
 TTTTTTTTTTTTTTTTTTTTTTTTTTTTTT FDIK        TELAPSE        3.06 TCPU        2.91
 INSULATING STATE
 TOP OF VALENCE BANDS -    BAND     60; K    2; EIG -4.1642410E-01 AU
 TOP OF VALENCE BANDS -    BAND     60; K    1; EIG -4.2116176E-01 AU
 BOTTOM OF VIRTUAL BANDS - BAND     61; K    1; EIG -5.8194199E-02 AU
 INDIRECT ENERGY BAND GAP:   9.7479 eV
 TTTTTTTTTTTTTTTTTTTTTTTTTTTTTT PDIG        TELAPSE        3.06 TCPU        2.91
 CHARGE NORMALIZATION FACTOR   1.00000000
 TOTAL ATOMIC CHARGES:
   9.0687865   9.0687865   9.0687865   9.0687865   9.0687865   9.0687865
   9.0733719   9.0733719   9.0733719   9.0733719   9.0733719   9.0733719
   0.4742435   0.4742435   0.4742435   0.4742435   0.4742435   0.4742435
   0.4613653   0.4613653   0.4613653   0.4613653   0.4613653   0.4613653
   0.4609941   0.4609941   0.4609941   0.4609941   0.4609941   0.4609941
   0.4612387   0.4612387   0.4612387   0.4612387   0.4612387   0.4612387
 TTTTTTTTTTTTTTTTTTTTTTTTTTTTTT MOQGAD      TELAPSE        3.07 TCPU        2.92
 TTTTTTTTTTTTTTTTTTTTTTTTTTTTTT SHELLXN     TELAPSE        4.53 TCPU        4.38
 TTTTTTTTTTTTTTTTTTTTTTTTTTTTTT MONMO3      TELAPSE        4.60 TCPU        4.45
 NUMERICALLY INTEGRATED DENSITY    119.9999998870
 TTTTTTTTTTTTTTTTTTTTTTTTTTTTTT NUMDFT      TELAPSE        5.05 TCPU        4.90
 CYC   1 ETOT(AU) -9.151610107422E+02 DETOT  5.40E-01 tst  0.00E+00 PX  1.00E+00
 TTTTTTTTTTTTTTTTTTTTTTTTTTTTTT DIIS        TELAPSE        5.07 TCPU        4.92
 DIIS TEST: 0.13565E+01 AT SCF   CYCLE   1 - MIX   30 %
 TTTTTTTTTTTTTTTTTTTTTTTTTTTTTT FDIK        TELAPSE        5.07 TCPU        4.92
 INSULATING STATE
 TOP OF VALENCE BANDS -    BAND     60; K    2; EIG -3.1041312E-01 AU
 TOP OF VALENCE BANDS -    BAND     60; K    1; EIG -3.1519819E-01 AU
 BOTTOM OF VIRTUAL BANDS - BAND     61; K    1; EIG  9.9346468E-03 AU
 INDIRECT ENERGY BAND GAP:   8.7171 eV
 TTTTTTTTTTTTTTTTTTTTTTTTTTTTTT PDIG        TELAPSE        5.07 TCPU        4.92
 CHARGE NORMALIZATION FACTOR   1.00000000
 TOTAL ATOMIC CHARGES:
   8.8397998   8.8397998   8.8397998   8.8397998   8.8397998   8.8397998
   8.8444909   8.8444909   8.8444909   8.8444909   8.8444909   8.8444909
   0.5893871   0.5893871   0.5893871   0.5893871   0.5893871   0.5893871
   0.5789553   0.5789553   0.5789553   0.5789553   0.5789553   0.5789553
   0.5776453   0.5776453   0.5776453   0.5776453   0.5776453   0.5776453
   0.5697216   0.5697216   0.5697216   0.5697216   0.5697216   0.5697216
 TTTTTTTTTTTTTTTTTTTTTTTTTTTTTT MOQGAD      TELAPSE        5.08 TCPU        4.92
 TTTTTTTTTTTTTTTTTTTTTTTTTTTTTT SHELLXN     TELAPSE        6.54 TCPU        6.39
 TTTTTTTTTTTTTTTTTTTTTTTTTTTTTT MONMO3      TELAPSE        6.61 TCPU        6.46
 NUMERICALLY INTEGRATED DENSITY    120.0000025023
 TTTTTTTTTTTTTTTTTTTTTTTTTTTTTT NUMDFT      TELAPSE        7.04 TCPU        6.89
 CYC   2 ETOT(AU) -9.154338901982E+02 DETOT -2.73E-01 tst  3.20E-03 PX  1.31E-01
 TTTTTTTTTTTTTTTTTTTTTTTTTTTTTT DIIS        TELAPSE        7.05 TCPU        6.90
 DIIS TEST: 0.30267E+00 AT SCF   CYCLE   2 - DIIS ACTIVE - HISTORY:     2 CYCLES
 TTTTTTTTTTTTTTTTTTTTTTTTTTTTTT FDIK        TELAPSE        7.05 TCPU        6.90
 INSULATING STATE
 TOP OF VALENCE BANDS -    BAND     60; K    2; EIG -3.5665387E-01 AU
 TOP OF VALENCE BANDS -    BAND     60; K    1; EIG -3.6172340E-01 AU
 BOTTOM OF VIRTUAL BANDS - BAND     61; K    1; EIG  8.2154427E-03 AU
 INDIRECT ENERGY BAND GAP:   9.9286 eV
 TTTTTTTTTTTTTTTTTTTTTTTTTTTTTT PDIG        TELAPSE        7.06 TCPU        6.90
 CHARGE NORMALIZATION FACTOR   1.00000000
 TOTAL ATOMIC CHARGES:
   8.9148697   8.9148697   8.9148697   8.9148697   8.9148697   8.9148697
   8.9213556   8.9213556   8.9213556   8.9213556   8.9213556   8.9213556
   0.5491767   0.5491767   0.5491767   0.5491767   0.5491767   0.5491767
   0.5420245   0.5420245   0.5420245   0.5420245   0.5420245   0.5420245
   0.5412072   0.5412072   0.5412072   0.5412072   0.5412072   0.5412072
   0.5313664   0.5313664   0.5313664   0.5313664   0.5313664   0.5313664
 TTTTTTTTTTTTTTTTTTTTTTTTTTTTTT MOQGAD      TELAPSE        7.06 TCPU        6.90
 TTTTTTTTTTTTTTTTTTTTTTTTTTTTTT SHELLXN     TELAPSE        8.52 TCPU        8.36
 TTTTTTTTTTTTTTTTTTTTTTTTTTTTTT MONMO3      TELAPSE        8.58 TCPU        8.43
 NUMERICALLY INTEGRATED DENSITY    120.0000017112
 TTTTTTTTTTTTTTTTTTTTTTTTTTTTTT NUMDFT      TELAPSE        9.01 TCPU        8.85
 CYC   3 ETOT(AU) -9.155138027491E+02 DETOT -7.99E-02 tst  2.67E-04 PX  4.84E-02
 TTTTTTTTTTTTTTTTTTTTTTTTTTTTTT DIIS        TELAPSE        9.01 TCPU        8.86
 DIIS TEST: 0.10797E-02 AT SCF   CYCLE   3 - DIIS ACTIVE - HISTORY:     3 CYCLES
 TTTTTTTTTTTTTTTTTTTTTTTTTTTTTT FDIK        TELAPSE        9.03 TCPU        8.86
 INSULATING STATE
 TOP OF VALENCE BANDS -    BAND     60; K    2; EIG -3.5410106E-01 AU
 TOP OF VALENCE BANDS -    BAND     60; K    1; EIG -3.5876191E-01 AU
 BOTTOM OF VIRTUAL BANDS - BAND     61; K    1; EIG  1.1190221E-02 AU
 INDIRECT ENERGY BAND GAP:   9.9401 eV
 TTTTTTTTTTTTTTTTTTTTTTTTTTTTTT PDIG        TELAPSE        9.04 TCPU        8.86
 CHARGE NORMALIZATION FACTOR   1.00000000
 TOTAL ATOMIC CHARGES:
   8.9128850   8.9128850   8.9128850   8.9128850   8.9128850   8.9128850
   8.9165593   8.9165593   8.9165593   8.9165593   8.9165593   8.9165593
   0.5499507   0.5499507   0.5499507   0.5499507   0.5499507   0.5499507
   0.5435523   0.5435523   0.5435523   0.5435523   0.5435523   0.5435523
   0.5435093   0.5435093   0.5435093   0.5435093   0.5435093   0.5435093
   0.5335433   0.5335433   0.5335433   0.5335433   0.5335433   0.5335433
 TTTTTTTTTTTTTTTTTTTTTTTTTTTTTT MOQGAD      TELAPSE        9.04 TCPU        8.86
 TTTTTTTTTTTTTTTTTTTTTTTTTTTTTT SHELLXN     TELAPSE       10.48 TCPU       10.31
 TTTTTTTTTTTTTTTTTTTTTTTTTTTTTT MONMO3      TELAPSE       10.55 TCPU       10.37
 NUMERICALLY INTEGRATED DENSITY    120.0000017502
 TTTTTTTTTTTTTTTTTTTTTTTTTTTTTT NUMDFT      TELAPSE       11.01 TCPU       10.84
 CYC   4 ETOT(AU) -9.155140211369E+02 DETOT -2.18E-04 tst  1.22E-06 PX  2.22E-03
 TTTTTTTTTTTTTTTTTTTTTTTTTTTTTT DIIS        TELAPSE       11.02 TCPU       10.84
 DIIS TEST: 0.38744E-04 AT SCF   CYCLE   4 - DIIS ACTIVE - HISTORY:     4 CYCLES
 TTTTTTTTTTTTTTTTTTTTTTTTTTTTTT FDIK        TELAPSE       11.06 TCPU       10.84
 INSULATING STATE
 TOP OF VALENCE BANDS -    BAND     60; K    2; EIG -3.5379779E-01 AU
 TOP OF VALENCE BANDS -    BAND     60; K    1; EIG -3.5879573E-01 AU
 BOTTOM OF VIRTUAL BANDS - BAND     61; K    1; EIG  1.1356769E-02 AU
 INDIRECT ENERGY BAND GAP:   9.9364 eV
 TTTTTTTTTTTTTTTTTTTTTTTTTTTTTT PDIG        TELAPSE       11.06 TCPU       10.84
 CHARGE NORMALIZATION FACTOR   1.00000000
 TOTAL ATOMIC CHARGES:
   8.9116030   8.9116030   8.9116030   8.9116030   8.9116030   8.9116030
   8.9176535   8.9176535   8.9176535   8.9176535   8.9176535   8.9176535
   0.5505931   0.5505931   0.5505931   0.5505931   0.5505931   0.5505931
   0.5438872   0.5438872   0.5438872   0.5438872   0.5438872   0.5438872
   0.5432016   0.5432016   0.5432016   0.5432016   0.5432016   0.5432016
   0.5330616   0.5330616   0.5330616   0.5330616   0.5330616   0.5330616
 TTTTTTTTTTTTTTTTTTTTTTTTTTTTTT MOQGAD      TELAPSE       11.06 TCPU       10.85
 TTTTTTTTTTTTTTTTTTTTTTTTTTTTTT SHELLXN     TELAPSE       12.48 TCPU       12.27
 TTTTTTTTTTTTTTTTTTTTTTTTTTTTTT MONMO3      TELAPSE       12.55 TCPU       12.34
 NUMERICALLY INTEGRATED DENSITY    120.0000017584
 TTTTTTTTTTTTTTTTTTTTTTTTTTTTTT NUMDFT      TELAPSE       12.98 TCPU       12.76
 CYC   5 ETOT(AU) -9.155140270764E+02 DETOT -5.94E-06 tst  1.20E-07 PX  6.49E-04
 TTTTTTTTTTTTTTTTTTTTTTTTTTTTTT DIIS        TELAPSE       12.99 TCPU       12.77
 DIIS TEST: 0.14507E-04 AT SCF   CYCLE   5 - DIIS ACTIVE - HISTORY:     5 CYCLES
 TTTTTTTTTTTTTTTTTTTTTTTTTTTTTT FDIK        TELAPSE       13.04 TCPU       12.77
 INSULATING STATE
 TOP OF VALENCE BANDS -    BAND     60; K    2; EIG -3.5394753E-01 AU
 TOP OF VALENCE BANDS -    BAND     60; K    1; EIG -3.5874447E-01 AU
 BOTTOM OF VIRTUAL BANDS - BAND     61; K    1; EIG  1.1377769E-02 AU
 INDIRECT ENERGY BAND GAP:   9.9410 eV
 TTTTTTTTTTTTTTTTTTTTTTTTTTTTTT PDIG        TELAPSE       13.04 TCPU       12.77
 CHARGE NORMALIZATION FACTOR   1.00000000
 TOTAL ATOMIC CHARGES:
   8.9121879   8.9121879   8.9121879   8.9121879   8.9121879   8.9121879
   8.9170020   8.9170020   8.9170020   8.9170020   8.9170020   8.9170020
   0.5503388   0.5503388   0.5503388   0.5503388   0.5503388   0.5503388
   0.5437312   0.5437312   0.5437312   0.5437312   0.5437312   0.5437312
   0.5434177   0.5434177   0.5434177   0.5434177   0.5434177   0.5434177
   0.5333224   0.5333224   0.5333224   0.5333224   0.5333224   0.5333224
 TTTTTTTTTTTTTTTTTTTTTTTTTTTTTT MOQGAD      TELAPSE       13.04 TCPU       12.77
 TTTTTTTTTTTTTTTTTTTTTTTTTTTTTT SHELLXN     TELAPSE       14.48 TCPU       14.21
 TTTTTTTTTTTTTTTTTTTTTTTTTTTTTT MONMO3      TELAPSE       14.55 TCPU       14.28
 NUMERICALLY INTEGRATED DENSITY    120.0000017574
 TTTTTTTTTTTTTTTTTTTTTTTTTTTTTT NUMDFT      TELAPSE       14.98 TCPU       14.71
 CYC   6 ETOT(AU) -9.155140303423E+02 DETOT -3.27E-06 tst  1.48E-08 PX  3.31E-04
 TTTTTTTTTTTTTTTTTTTTTTTTTTTTTT DIIS        TELAPSE       14.99 TCPU       14.72
 DIIS TEST: 0.34865E-06 AT SCF   CYCLE   6 - DIIS ACTIVE - HISTORY:     6 CYCLES
 TTTTTTTTTTTTTTTTTTTTTTTTTTTTTT FDIK        TELAPSE       15.17 TCPU       14.72
 INSULATING STATE
 TOP OF VALENCE BANDS -    BAND     60; K    2; EIG -3.5391016E-01 AU
 TOP OF VALENCE BANDS -    BAND     60; K    1; EIG -3.5873402E-01 AU
 BOTTOM OF VIRTUAL BANDS - BAND     61; K    1; EIG  1.1392218E-02 AU
 INDIRECT ENERGY BAND GAP:   9.9404 eV
 TTTTTTTTTTTTTTTTTTTTTTTTTTTTTT PDIG        TELAPSE       15.18 TCPU       14.72
 CHARGE NORMALIZATION FACTOR   1.00000000
 TOTAL ATOMIC CHARGES:
   8.9120868   8.9120868   8.9120868   8.9120868   8.9120868   8.9120868
   8.9170341   8.9170341   8.9170341   8.9170341   8.9170341   8.9170341
   0.5503754   0.5503754   0.5503754   0.5503754   0.5503754   0.5503754
   0.5437748   0.5437748   0.5437748   0.5437748   0.5437748   0.5437748
   0.5434148   0.5434148   0.5434148   0.5434148   0.5434148   0.5434148
   0.5333142   0.5333142   0.5333142   0.5333142   0.5333142   0.5333142
 TTTTTTTTTTTTTTTTTTTTTTTTTTTTTT MOQGAD      TELAPSE       15.18 TCPU       14.72
 TTTTTTTTTTTTTTTTTTTTTTTTTTTTTT SHELLXN     TELAPSE       16.62 TCPU       16.17
 TTTTTTTTTTTTTTTTTTTTTTTTTTTTTT MONMO3      TELAPSE       16.69 TCPU       16.23
 NUMERICALLY INTEGRATED DENSITY    120.0000017582
 TTTTTTTTTTTTTTTTTTTTTTTTTTTTTT NUMDFT      TELAPSE       17.12 TCPU       16.66
 CYC   7 ETOT(AU) -9.155140304235E+02 DETOT -8.13E-08 tst  6.37E-10 PX  4.65E-05
 TTTTTTTTTTTTTTTTTTTTTTTTTTTTTT DIIS        TELAPSE       17.13 TCPU       16.67
 DIIS TEST: 0.34145E-08 AT SCF   CYCLE   7 - DIIS ACTIVE - HISTORY:     7 CYCLES
 TTTTTTTTTTTTTTTTTTTTTTTTTTTTTT FDIK        TELAPSE       17.22 TCPU       16.77
 INSULATING STATE
 TOP OF VALENCE BANDS -    BAND     60; K    2; EIG -3.5391363E-01 AU
 TOP OF VALENCE BANDS -    BAND     60; K    1; EIG -3.5873562E-01 AU
 BOTTOM OF VIRTUAL BANDS - BAND     61; K    1; EIG  1.1390059E-02 AU
 INDIRECT ENERGY BAND GAP:   9.9404 eV
 TTTTTTTTTTTTTTTTTTTTTTTTTTTTTT PDIG        TELAPSE       17.23 TCPU       16.77
 CHARGE NORMALIZATION FACTOR   1.00000000
 TOTAL ATOMIC CHARGES:
   8.9120822   8.9120822   8.9120822   8.9120822   8.9120822   8.9120822
   8.9170302   8.9170302   8.9170302   8.9170302   8.9170302   8.9170302
   0.5503808   0.5503808   0.5503808   0.5503808   0.5503808   0.5503808
   0.5437743   0.5437743   0.5437743   0.5437743   0.5437743   0.5437743
   0.5434180   0.5434180   0.5434180   0.5434180   0.5434180   0.5434180
   0.5333145   0.5333145   0.5333145   0.5333145   0.5333145   0.5333145
 TTTTTTTTTTTTTTTTTTTTTTTTTTTTTT MOQGAD      TELAPSE       17.23 TCPU       16.77
 TTTTTTTTTTTTTTTTTTTTTTTTTTTTTT SHELLXN     TELAPSE       18.67 TCPU       18.21
 +++ ENERGIES IN A.U. +++
 ::: EXT EL-POLE                                  -5.8556673175257E+02
 ::: EXT EL-SPHEROPOLE                             5.9754600319862E+00
 ::: BIELET ZONE E-E                               1.0420904652614E+03
 ::: TOTAL E-E                                     4.6249919354080E+02
 ::: TOTAL E-N + N-E                              -2.2622387351859E+03
 ::: TOTAL N-N                                     4.3093401631373E+01
 ::: KINETIC ENERGY                                9.0976995011015E+02
 ::: PSEUDO TOTAL   ENERGY                        -8.4687618990360E+02
 ::: VIRIAL COEFFICIENT                            1.0358033179102E+00
 TTTTTTTTTTTTTTTTTTTTTTTTTTTTTT MONMO3      TELAPSE       18.74 TCPU       18.28
 NUMERICALLY INTEGRATED DENSITY    120.0000017583
 TTTTTTTTTTTTTTTTTTTTTTTTTTTTTT NUMDFT      TELAPSE       19.18 TCPU       18.72
 CYC   8 ETOT(AU) -9.155140304261E+02 DETOT -2.56E-09 tst  5.48E-12 PX  4.65E-05

 == SCF ENDED - CONVERGENCE ON ENERGY      E(AU) -9.1551403042610E+02 CYCLES   8


 ENERGY EXPRESSION=HARTREE+FOCK EXCH*0.00000+(HSE-3c     EXCH)*1.00000+PBEh-3c    CORR


 TOTAL ENERGY(DFT)(AU)(  8) -9.1551403042610E+02 DE-2.6E-09 tester 5.5E-12
 TTTTTTTTTTTTTTTTTTTTTTTTTTTTTT EDFT        TELAPSE       19.18 TCPU       18.72
 
 INFORMATION **** DFTD3 ENERGY **** CALCULATE DFTD3 ENERGY

           DFT-D V3(BJ)
 DF                                         hse3c     
 parameters
 s6       :    1.0000
 s8       :    0.0000
 a1       :    0.4411
 a2       :    4.5182
 k1 k3    :   16.0000   -4.0000
 Cutoff   :   50.2022
 CN-Cutoff:   21.1671
 
 Edisp /kcal,au:   -17.2168 -0.02743672

 E6    /kcal :   -17.6819
 E8    /kcal :     0.0000
 E6(ABC) "   :   0.465066
 
 INFORMATION **** DFTD3 ENERGY **** NORMAL TERMINATION OF DFTD3 MODULE

 GCP ENERGY CALCULATION
  level           hse3c               basis:hse3c
  Nbf            228
  Atoms           36

  Parameters: 
  sigma     1.0000
  eta       1.4086
  alpha     0.2908
  beta      1.9526

  dmp_scal      4.0000
  dmp_exp       6.0000
 cutoffs: 
   distance [bohr] 60.0
   noise    [a.u.] 2.2E-16
 SR-damping   T
 ** gCP correction **
  Egcp:        0.1423595876 / (a.u.) ||      89.3320 / (kcal/mol)
 INFORMATION **** GCP **** NORMAL TERMINATION OF GCP MODULE

 *******************************************************************************

 DFT-D3-GCP DISPERSION AND COUNTERPOISE CORRECTION

 D3 DISPERSION ENERGY (AU)      -2.7436722222941E-02
 GCP ENERGY (AU)                 1.4235958758088E-01
 TOTAL ENERGY + DISP + GCP (AU) -9.1539910756074E+02

 *******************************************************************************

 EIGENVECTORS IN FORTRAN UNIT  8
 TTTTTTTTTTTTTTTTTTTTTTTTTTTTTT END         TELAPSE       19.63 TCPU       19.15
 EEEEEEEEEE TERMINATION  DATE 25 03 2019 TIME 17:48:22.3
NODE    0 CPU TIME =        19.151
NODE    1 CPU TIME =        19.186
NODE    2 CPU TIME =        19.418
NODE    3 CPU TIME =        19.319
NODE    4 CPU TIME =        19.441
NODE    5 CPU TIME =        19.314
NODE    6 CPU TIME =        19.380
NODE    7 CPU TIME =        19.367
    TOTAL CPU TIME =       154.575
