 PROCESS            2  OF            8  WORKING
 PROCESS            0  OF            8  WORKING
 PROCESS            6  OF            8  WORKING
 PROCESS            3  OF            8  WORKING
 PROCESS            4  OF            8  WORKING
 PROCESS            5  OF            8  WORKING
 PROCESS            1  OF            8  WORKING
 PROCESS            7  OF            8  WORKING

         
 *******************************************************************************
 *                                                                             *
 *                               CRYSTAL17                                     *
 *                      public : 1.0.1 - Feb 1st, 2017                         *
 *                       HTTP://WWW.CRYSTAL.UNITO.IT                           *
 *                                                                             *
 *                              MAIN AUTHORS                                   *
 *                                                                             *
 *  R. DOVESI(1,11), V.R. SAUNDERS(2), C. ROETTI(1,11), R. ORLANDO(1,11),      *
 *  C.M. ZICOVICH-WILSON(1,3), F. PASCALE(4), B. CIVALLERI(1,11),              *
 *  K. DOLL(5), N.M. HARRISON(2,6), I.J. BUSH(7), Ph. D'ARCO(8),               *
 *  M. LLUNELL(9), M. CAUSA'(10), Y. NOEL(8), L. MASCHIO(1,11), A. ERBA(1,11)  *
 *  M. RE'RAT(14), S. CASASSA(1,11)                                            *
 *                                                                             *
 *        CONTRIBUTIONS TO THE CODE HAVE ALSO BEEN GIVEN BY                    *
 *                                                                             *
 *  M. FERRABONE(1,11), M. DE LA PIERRE(1,11), M. FERRERO(1,11),               *
 *  J. BAIMA(1,11), E. ALBANESE(1,11), M.F. PEINTINGER(12), R. BAST(13),       *
 *  B. KIRTMAN(15), V. LACIVITA(1,11), R. DEMICHELIS(1,16)                     *
 *  G. BRANDEBURG(17), S. SALUSTRO(1,11), G. SANSONE(1,11)                     *
 *  M.T. RUGGIERO(18)                                                          *
 *                                                                             *
 * (1) THEORETICAL CHEMISTRY GROUP - UNIVERSITA' DI TORINO - TORINO (ITALY)    *

 * (2) COMPUTATIONAL SCIENCE & ENGINEERING DEPARTMENT - STFC DARESBURY (UK)    *
 * (3) UNIVERSIDAD AUTONOMA DEL ESTADO DE MORELOS - CUERNAVACA (MEXICO)        *
 * (4) UNIVERSITE' DE LORRAINE - NANCY (FRANCE)                                *
 * (5) UNIVERSITAET STUTTGART- STUTTGART (GERMANY)                             *
 * (6) IMPERIAL COLLEGE - LONDON (UK)                                          *
 * (7) OXFORD E-RESEARCH CENTRE - OXFORD (UK)                                  *
 * (8) UPMC - SORBONNE UNIVERSITES - PARIS (FRANCE)                            *
 * (9) UNIVERSIDAD DE BARCELONA - BARCELONA (SPAIN)                            *
 *(10) UNIVERSITA' DI NAPOLI "FEDERICO II" - NAPOLI (ITALY)                    *
 *(11) NIS - NANOSTRUCTURED INTERFACES AND SURFACES - TORINO (ITALY)           *
 *(12) MPI FUER CHEMISCHE ENERGIEKONVERSION - MUELHEIM AN DER RUHR (GERMANY)   *
 *(13) UNIVERSITY OF TROMSO - TROMSO (NORWAY)                                  *
 *(14) UNIVERSITE' DE PAU ET DES PAYS DE L'ADOUR - PAU (FRANCE)                *
 *(15) UNIVERSITY OF CALIFORNIA SANTA BARBARA - SANTA BARBARA (USA)            *
 *(16) CURTIN UNIVERSITY - PERTH (AUSTRALIA)                                   *
 *(17) UNIVERSITY COLLEGE LONDON - LONDON (UK)                                 *
 *(18) CAMBRIDGE UNIVERSITY - CAMBRIDGE (UK)                                   *
 *                                                                             *
 *******************************************************************************
 EEEEEEEEEE STARTING  DATE 25 03 2019 TIME 17:52:40.9
 !drive by JGB                                                                   

 CRYSTAL CALCULATION
 (INPUT ACCORDING TO THE INTERNATIONAL TABLES FOR X-RAY CRYSTALLOGRAPHY)
 CRYSTAL FAMILY                       :  MONOCLINIC  
 CRYSTAL CLASS  (GROTH - 1921)        :  MONOCLINIC PRISMATIC                 

 SPACE GROUP (CENTROSYMMETRIC)        :  C 2/M           

 LATTICE PARAMETERS  (ANGSTROMS AND DEGREES) - CONVENTIONAL CELL
        A           B           C        ALPHA        BETA       GAMMA
     8.40830     4.53990     6.98220    90.00000   124.00700    90.00000


 NUMBER OF IRREDUCIBLE ATOMS IN THE CONVENTIONAL CELL:    5

 INPUT COORDINATES

 ATOM AT. N.              COORDINATES
   1   8     7.822000000000E-01  0.000000000000E+00  7.497700000000E-01
   2   8     5.076000000000E-02  5.000000000000E-01  2.715000000000E-01
   3   1     8.602400000000E-01  8.253700000000E-01  7.741300000000E-01
   4   1     9.177100000000E-01  5.000000000000E-01  2.270300000000E-01
   5   1     1.280800000000E-01  5.000000000000E-01  4.411000000000E-01

 *******************************************************************************

 << INFORMATION >>: FROM NOW ON, ALL COORDINATES REFER TO THE PRIMITIVE CELL

 *******************************************************************************

 LATTICE PARAMETERS  (ANGSTROMS AND DEGREES) - PRIMITIVE CELL
       A          B          C        ALPHA      BETA     GAMMA        VOLUME
    4.77782    4.77782    6.98220    60.51865 119.48135 123.26805    110.472757

 COORDINATES OF THE EQUIVALENT ATOMS (FRACTIONAL UNITS)

 N. ATOM EQUIV AT. N.          X                  Y                  Z

   1   1   1    8 O    -2.17800000000E-01  2.17800000000E-01 -2.50230000000E-01
   2   1   2    8 O     2.17800000000E-01 -2.17800000000E-01  2.50230000000E-01

   3   2   1    8 O    -4.49240000000E-01  4.49240000000E-01  2.71500000000E-01
   4   2   2    8 O     4.49240000000E-01 -4.49240000000E-01 -2.71500000000E-01

   5   3   1    1 H    -3.14390000000E-01 -3.48700000000E-02 -2.25870000000E-01
   6   3   2    1 H    -3.48700000000E-02 -3.14390000000E-01  2.25870000000E-01
   7   3   3    1 H     3.14390000000E-01  3.48700000000E-02  2.25870000000E-01
   8   3   4    1 H     3.48700000000E-02  3.14390000000E-01 -2.25870000000E-01

   9   4   1    1 H     4.17710000000E-01 -4.17710000000E-01  2.27030000000E-01
  10   4   2    1 H    -4.17710000000E-01  4.17710000000E-01 -2.27030000000E-01

  11   5   1    1 H    -3.71920000000E-01  3.71920000000E-01  4.41100000000E-01
  12   5   2    1 H     3.71920000000E-01 -3.71920000000E-01 -4.41100000000E-01

 NUMBER OF SYMMETRY OPERATORS         :    4
 *******************************************************************************
 * GEOMETRY EDITING - INPUT COORDINATES ARE GIVEN IN ANGSTROM         
 *******************************************************************************

 GEOMETRY NOW FULLY CONSISTENT WITH THE GROUP

 GCALCO - MAX INDICES DIRECT LATTICE VECTOR    16    16    11
 NO.OF VECTORS CREATED 6999 STARS 1809 RMAX   107.58119 BOHR

 GEOMETRY FOR WAVE FUNCTION - DIMENSIONALITY OF THE SYSTEM    3
 (NON PERIODIC DIRECTION: LATTICE PARAMETER FORMALLY SET TO 500)
 *******************************************************************************
 LATTICE PARAMETERS (ANGSTROMS AND DEGREES) - BOHR = 0.5291772083 ANGSTROM
 PRIMITIVE CELL - CENTRING CODE 4/0 VOLUME=   110.472757 - DENSITY  1.083 g/cm^3
         A              B              C           ALPHA      BETA       GAMMA 
     4.77781856     4.77781856     6.98220000    60.518651 119.481349 123.268049
 *******************************************************************************
 ATOMS IN THE ASYMMETRIC UNIT    5 - ATOMS IN THE UNIT CELL:   12
     ATOM                 X/A                 Y/B                 Z/C    
 *******************************************************************************
      1 T   8 O    -2.178000000000E-01  2.178000000000E-01 -2.502300000000E-01
      2 F   8 O     2.178000000000E-01 -2.178000000000E-01  2.502300000000E-01
      3 T   8 O    -4.492400000000E-01  4.492400000000E-01  2.715000000000E-01
      4 F   8 O     4.492400000000E-01 -4.492400000000E-01 -2.715000000000E-01
      5 T   1 H    -3.143900000000E-01 -3.487000000000E-02 -2.258700000000E-01
      6 F   1 H    -3.487000000000E-02 -3.143900000000E-01  2.258700000000E-01
      7 F   1 H     3.143900000000E-01  3.487000000000E-02  2.258700000000E-01
      8 F   1 H     3.487000000000E-02  3.143900000000E-01 -2.258700000000E-01
      9 T   1 H     4.177100000000E-01 -4.177100000000E-01  2.270300000000E-01
     10 F   1 H    -4.177100000000E-01  4.177100000000E-01 -2.270300000000E-01
     11 T   1 H    -3.719200000000E-01  3.719200000000E-01  4.411000000000E-01
     12 F   1 H     3.719200000000E-01 -3.719200000000E-01 -4.411000000000E-01

 TRANSFORMATION MATRIX PRIMITIVE-CRYSTALLOGRAPHIC CELL
  1.0000  1.0000  0.0000 -1.0000  1.0000  0.0000  0.0000  0.0000  1.0000

 *******************************************************************************
 CRYSTALLOGRAPHIC CELL (VOLUME=        220.94551491)
         A              B              C           ALPHA      BETA       GAMMA 
     8.40830000     4.53990000     6.98220000    90.000000 124.007000  90.000000

 COORDINATES IN THE CRYSTALLOGRAPHIC CELL
     ATOM                 X/A                 Y/B                 Z/C    
 *******************************************************************************
      1 T   8 O    -2.178000000000E-01  6.273756880662E-18 -2.502300000000E-01
      2 F   8 O     2.178000000000E-01 -1.921467453879E-17  2.502300000000E-01
      3 T   8 O     5.076000000000E-02  5.000000000000E-01  2.715000000000E-01
      4 F   8 O    -5.076000000000E-02 -5.000000000000E-01 -2.715000000000E-01
      5 T   1 H    -1.397600000000E-01 -1.746300000000E-01 -2.258700000000E-01
      6 F   1 H     1.397600000000E-01 -1.746300000000E-01  2.258700000000E-01
      7 F   1 H     1.397600000000E-01  1.746300000000E-01  2.258700000000E-01
      8 F   1 H    -1.397600000000E-01  1.746300000000E-01 -2.258700000000E-01
      9 T   1 H     4.177100000000E-01 -8.843305490861E-18  2.270300000000E-01
     10 F   1 H    -4.177100000000E-01  3.472514080712E-17 -2.270300000000E-01
     11 T   1 H    -3.719200000000E-01  2.524410689407E-17  4.411000000000E-01
     12 F   1 H     3.719200000000E-01  6.377284221927E-19 -4.411000000000E-01

 T = ATOM BELONGING TO THE ASYMMETRIC UNIT

 ****    4 SYMMOPS - TRANSLATORS IN FRACTIONAL UNITS
 **** MATRICES AND TRANSLATORS IN THE CRYSTALLOGRAPHIC REFERENCE FRAME
   V INV                    ROTATION MATRICES                   TRANSLATORS
   1   1  1.00  0.00  0.00  0.00  1.00  0.00  0.00  0.00  1.00  0.00  0.00  0.00
   2   2  0.00  1.00  0.00  1.00  0.00 -0.00  0.00  0.00 -1.00  0.00  0.00  0.00
   3   3 -1.00  0.00  0.00 -0.00 -1.00 -0.00  0.00  0.00 -1.00  0.00  0.00  0.00
   4   4 -0.00 -1.00 -0.00 -1.00  0.00  0.00  0.00  0.00  1.00  0.00  0.00  0.00

 DIRECT LATTICE VECTORS CARTESIAN COMPONENTS (ANGSTROM)
          X                    Y                    Z
   0.420415000000E+01   0.226995000000E+01   0.000000000000E+00
  -0.420415000000E+01   0.226995000000E+01   0.000000000000E+00
  -0.390510386091E+01   0.427536444050E-15   0.578802908385E+01


 CARTESIAN COORDINATES - PRIMITIVE CELL
 *******************************************************************************
 *      ATOM          X(ANGSTROM)         Y(ANGSTROM)         Z(ANGSTROM)
 *******************************************************************************
    1     8 O    -8.541536008847E-01 -2.832338606232E-16 -1.448338517652E+00
    2     8 O     8.541536008847E-01  2.244833885470E-16  1.448338517652E+00
    3     8 O    -6.334303902368E-01 -2.269950000000E+00  1.571449896266E+00
    4     8 O     6.334303902368E-01 -2.269950000000E+00 -1.571449896266E+00
    5     1 H    -2.930981989365E-01 -7.928027370000E-01 -1.307342129170E+00
    6     1 H     2.930981989365E-01 -7.928027370000E-01  1.307342129170E+00
    7     1 H     2.930981989365E-01  7.928027370000E-01  1.307342129170E+00
    8     1 H    -2.930981989365E-01  7.928027370000E-01 -1.307342129170E+00
    9     1 H     2.625655263458E+00  4.495664313497E-16  1.314056242907E+00
   10     1 H    -2.625655263458E+00 -3.320654871974E-16 -1.314056242907E+00
   11     1 H    -9.446523881380E-01 -4.739520068843E-16 -3.234929454965E+00
   12     1 H     9.446523881380E-01  5.914529510366E-16  3.234929454965E+00

 *******************************************************************************
 STARTING BASIS SET HANDLING 
 *******************************************************************************

 Loading internal basis set: DEF2-MSVP           

 Please cite in your publication:
 Fully Optimized Contracted Gaussian Basis Sets for Atoms Li to Kr. A. Schäfer, 
 H. Horn and R. Ahlrichs; J. Chem. Phys. 97, 2571 (1992).                       
                                                                                
                    
 S. Grimme, J. G. Brandenburg, C. Bannwarth, and A. Hansen, J. Chem. Phys., 143,
  054107 (2015).                                                                
                                                                                
                    

 *******************************************************************************
 LOCAL ATOMIC FUNCTIONS BASIS SET
 *******************************************************************************
   ATOM   X(AU)   Y(AU)   Z(AU)  N. TYPE  EXPONENT  S COEF   P COEF   D/F/G COEF
 *******************************************************************************
   1 O   -1.614  -0.000  -2.737
                                  1 S  
                                         6.773E+03 1.727E-03 0.000E+00 0.000E+00
                                         1.017E+03 1.325E-02 0.000E+00 0.000E+00
                                         2.313E+02 6.603E-02 0.000E+00 0.000E+00
                                         6.501E+01 2.353E-01 0.000E+00 0.000E+00
                                         2.050E+01 5.498E-01 0.000E+00 0.000E+00
                                  2 S  
                                         6.716E+00 1.000E+00 0.000E+00 0.000E+00
                                  3 S  
                                         1.147E+00 1.000E+00 0.000E+00 0.000E+00
                                  4 S  
                                         3.342E-01 1.000E+00 0.000E+00 0.000E+00
                           5-     7 P  
                                         1.769E+01 0.000E+00 4.359E-02 0.000E+00
                                         3.854E+00 0.000E+00 2.318E-01 0.000E+00
                                         1.047E+00 0.000E+00 5.146E-01 0.000E+00
                           8-    10 P  
                                         2.759E-01 0.000E+00 1.000E+00 0.000E+00
                          11-    15 D  
                                         8.000E-01 0.000E+00 0.000E+00 1.000E+00
   2 O    1.614   0.000   2.737
   3 O   -1.197  -4.290   2.970
   4 O    1.197  -4.290  -2.970
   5 H   -0.554  -1.498  -2.471
                                 61 S  
                                         1.874E+01 1.968E-02 0.000E+00 0.000E+00
                                         2.826E+00 1.380E-01 0.000E+00 0.000E+00
                                         6.401E-01 4.783E-01 0.000E+00 0.000E+00
                                 62 S  
                                         1.756E-01 1.000E+00 0.000E+00 0.000E+00
   6 H    0.554  -1.498   2.471
   7 H    0.554   1.498   2.471
   8 H   -0.554   1.498  -2.471
   9 H    4.962   0.000   2.483
  10 H   -4.962  -0.000  -2.483
  11 H   -1.785  -0.000  -6.113
  12 H    1.785   0.000   6.113

 *******************************************************************************
 FINISHED BASIS SET HANDLING 
 *******************************************************************************

 INFORMATION **** SET_MPP **** PCRYSTAL CALCULATION
 INFORMATION **** READM2 **** NEW DEFAULT: FOCK/KS MATRIX MIXING SET TO 30 %
 INFORMATION **** READM2 **** NEW DEFAULT: FULL DIRECT SCF MODE
 INFORMATION **** READM2 **** NEW DEFAULT: COULOMB BIPOLAR BUFFER SET TO 32 Mb
 INFORMATION **** READM2 **** NEW DEFAULT: EXCHANGE BIPOLAR BUFFER SET TO 32 Mb

 *******************************************************************************
 NEW DEFAULT: DFT INTEGRATION GRID INCREASED TO XLGRID
 NEW DEFAULT: DIIS ACCELERATOR ACTIVE
 USE KEYWORD NODIIS TO TURN IT OFF
 *******************************************************************************

 INFORMATION **** RDDFTP **** HSE-3c calculation
 INFORMATION **** RDDFTP **** HSE screened hybrid functional combined with D3 and gCP

PLEASE CITE:
(1) HSE-3c Reference
 J. G. Brandenburg, E. Caldeweyer, and S. Grimme, 
 Phys. Chem. Chem. Phys. 18, 15519 (2016)
(2) DFT-D3 Reference
 S. Grimme, J. Antony, S. Ehrlich,
 and H. Krieg, J. Chem. Phys. 132, 154104 (2010)
(3) gCP Reference
 H. Kruse and S. Grimme J. Chem. Phys, 136, 154101 (2012)
 J. G. Brandenburg, M. Alessio, B. Civalleri, M. F. Peintinger
 T. Bredow, and S. Grimme, J. Phys. Chem. A, 117, 9282 (2013) 

 WARNING **** RDDFTP **** HSE3c-HJS ACTIVE
 RANGE SEPARATION - OMEGA:   0.110000000000000     
 WARNING **** RDDFTP **** HSE-3c has to be combined with def2-mSVP basis set
 WARNING **** RDDFTP **** Note: Harmonic frequencies are scaled by 0.95
 WARNING **** RDDFTP **** as recommended in original publication
 INFORMATION **** BIPOSIZE **** COULOMB BIPOLAR BUFFER SET TO    60000000
 INFORMATION **** EXCHSIZE **** EXCHANGE BIPOLAR BUFFER SIZE SET TO    40000000
 *******************************************************************************
 N. OF ATOMS PER CELL        12  COULOMB OVERLAP TOL         (T1) 10**   -6
 NUMBER OF SHELLS            44  COULOMB PENETRATION TOL     (T2) 10**   -6
 NUMBER OF AO                76  EXCHANGE OVERLAP TOL        (T3) 10**   -6
 N. OF ELECTRONS PER CELL    40  EXCHANGE PSEUDO OVP (F(G))  (T4) 10**   -6
 CORE ELECTRONS PER CELL      8  EXCHANGE PSEUDO OVP (P(G))  (T5) 10**  -12
 N. OF SYMMETRY OPERATORS     4  POLE ORDER IN MONO ZONE                  4
 *******************************************************************************
 TYPE OF CALCULATION :  RESTRICTED CLOSED SHELL
 KOHN-SHAM HAMILTONIAN

 (EXCHANGE)[CORRELATION] FUNCTIONAL:(HSE-3c)[PBEh-3c]

 RANGE-SEPARATED HYBRID FUNCTIONAL 
 OMEGA (SHORT-RANGE)[LONG-RANGE]:(    0.1100)[    0.0000]

 HYBRID EXCHANGE - PERCENTAGE OF FOCK EXCHANGE    42.0000

 CAPPA:IS1  2;IS2  2;IS3  2; K PTS MONK NET   6; SYMMOPS:K SPACE   4;G SPACE   4

 *******************************************************************************
 MAX NUMBER OF SCF CYCLES      50  CONVERGENCE ON DELTAP        10**-16
 WEIGHT OF F(I) IN F(I+1)      30% CONVERGENCE ON ENERGY        10**- 6
 S(K) EIGENV. THRESHOLD  10*10.**-4
 SHRINK. FACT.(MONKH.)    2  2  2  NUMBER OF K POINTS IN THE IBZ      6
 SHRINKING FACTOR(GILAT NET)    2  NUMBER OF K POINTS(GILAT NET)      6
 *******************************************************************************
 *** K POINTS COORDINATES (OBLIQUE COORDINATES IN UNITS OF IS =  2)
   1-R(  0  0  0)   2-R(  1  0  0)   3-R(  1  1  0)   4-R(  0  0  1)
   5-R(  1  0  1)   6-R(  1  1  1)

 DIRECT LATTICE VECTORS COMPON. (A.U.)     RECIP. LATTICE VECTORS COMPON. (A.U.) 
        X            Y            Z              X            Y            Z
    7.9446921    4.2895838    0.0000000      0.3954329    0.7323770    0.2667932
   -7.9446921    4.2895838    0.0000000     -0.3954329    0.7323770   -0.2667932
   -7.3795768    0.0000000   10.9377898      0.0000000    0.0000000    0.5744474

 DISK SPACE FOR EIGENVECTORS (FTN 10)       34656 REALS

 SYMMETRY ADAPTION OF THE BLOCH FUNCTIONS ENABLED
 TTTTTTTTTTTTTTTTTTTTTTTTTTTTTT gordsh1     TELAPSE        0.33 TCPU        0.05

 MATRIX SIZE: P(G)   42748, F(G)    7574, P(G) IRR    6835, F(G) IRR    2558
 MAX G-VECTOR INDEX FOR 1- AND 2-ELECTRON INTEGRALS 119

 TTTTTTTTTTTTTTTTTTTTTTTTTTTTTT INPUT       TELAPSE        0.33 TCPU        0.05

 NEIGHBORS OF THE NON-EQUIVALENT ATOMS

 N = NUMBER OF NEIGHBORS AT DISTANCE R
    ATOM  N     R/ANG      R/AU   NEIGHBORS (ATOM LABELS AND CELL INDICES)
   1 O    2     0.9814     1.8546    5 H    0 0 0    8 H    0 0 0
   1 O    1     1.7766     3.3573   10 H    0 0 0
   1 O    1     1.7889     3.3805   11 H    0 0 0
   1 O    2     2.7168     5.1339    4 O    0 0 0    4 O    1 1 0
   1 O    1     2.7194     5.1388    4 O    0 1 0
   1 O    1     2.7693     5.2333    3 O    0 1-1

   3 O    1     0.9795     1.8510    9 H   -1 0 0
   3 O    1     0.9817     1.8552   11 H    0-1 1
   3 O    2     1.7636     3.3327    6 H    0 0 0    7 H   -1-1 0
   3 O    2     2.7168     5.1339    2 O    0 0 0    2 O   -1-1 0
   3 O    1     2.7194     5.1388    2 O   -1 0 0
   3 O    1     2.7693     5.2333    1 O    0-1 1

   5 H    1     0.9814     1.8546    1 O    0 0 0
   5 H    1     1.5856     2.9964    8 H    0 0 0
   5 H    1     1.7636     3.3327    4 O    0 0 0
   5 H    1     2.1483     4.0596   12 H   -1 0-1
   5 H    1     2.1837     4.1266   11 H    0 0 0
   5 H    1     2.3843     4.5057   10 H    0-1 0

   9 H    1     0.9795     1.8510    3 O    1 0 0
   9 H    1     1.5510     2.9309   11 H    1-1 1
   9 H    1     1.7766     3.3573    2 O    0 0 0
   9 H    2     2.3843     4.5057    6 H    1 0 0    7 H    0-1 0
   9 H    2     2.4636     4.6556    6 H    0 0 0    7 H    0 0 0
   9 H    1     2.5526     4.8236   12 H    0 0 0

  11 H    1     0.9817     1.8552    3 O    0 1-1
  11 H    1     1.5510     2.9309    9 H   -1 1-1
  11 H    1     1.7889     3.3805    1 O    0 0 0
  11 H    2     2.1483     4.0596    6 H    0 1-1    7 H   -1 0-1
  11 H    2     2.1837     4.1266    5 H    0 0 0    8 H    0 0 0
  11 H    1     2.5526     4.8236   10 H    0 0 0


 SYMMETRY ALLOWED INTERNAL DEGREE(S) OF FREEDOM:  11
 TTTTTTTTTTTTTTTTTTTTTTTTTTTTTT SYMM        TELAPSE        0.37 TCPU        0.09
 TTTTTTTTTTTTTTTTTTTTTTTTTTTTTT INT_SCREEN  TELAPSE        0.37 TCPU        0.09

 DFT PARAMETERS

     ATOM       ELECTRONS   NET CHARGE   R(ANGSTROM)
   1   8  O       8.0000      0.0000     0.74000000
   5   1  H       1.0000      0.0000     1.11000000

 SIZE OF GRID=      70850
 TTTTTTTTTTTTTTTTTTTTTTTTTTTTTT MAKE_GRID2  TELAPSE        2.38 TCPU        2.08
 BECKE WEIGHT FUNCTION
 RADSAFE =     2.00
 TOLERANCES - DENSITY:10**- 6; POTENTIAL:10**- 9; GRID WGT:10**-14

 RADIAL INTEGRATION  - INTERVALS (POINTS,UPPER LIMIT):            1( 75,  4.0*R)

 ANGULAR INTEGRATION - INTERVALS (ACCURACY LEVEL [N. POINTS] UPPER LIMIT):
  1(  4[  86]   0.2)  2(  8[ 194]   0.5)  3( 12[ 350]   0.9)  4( 16[ 974]   3.5)
  5( 12[ 350]9999.0)
 TTTTTTTTTTTTTTTTTTTTTTTTTTTTTT INT_CALC    TELAPSE        2.40 TCPU        2.10
 EEEEEEEEEE INT_CALC TERMINATION  DATE 25 03 2019 TIME 17:52:43.1

 *******************************************************************************
 !drive by JGB                                                                   
 CRYSTAL - SCF - TYPE OF CALCULATION :  RESTRICTED CLOSED SHELL
 *******************************************************************************

 CAPPA:IS1  2;IS2  2;IS3  2; K PTS MONK NET   6; SYMMOPS:K SPACE   4;G SPACE   4

 TTTTTTTTTTTTTTTTTTTTTTTTTTTTTT SDIK        TELAPSE        2.41 TCPU        2.11

 AAAAAAAAAAAAAAAAAAAAAAAAAAAAAAAAAAAAAAAAAAAAAAAAAAAAAAAAAAAAAAAAAAAAAAAAAAAAAAA
         ATOMIC WAVEFUNCTION(S)


 NUCLEAR CHARGE  8.0  SYMMETRY SPECIES            S    P
 N. ELECTRONS    8.0  NUMBER OF PRIMITIVE GTOS    8    4
                      NUMBER OF CONTRACTED GTOS   4    2
                      NUMBER OF CLOSED SHELLS     2    0
                      OPEN SHELL OCCUPATION       0    4

  ZNUC SCFIT  TOTAL HF ENERGY   KINETIC ENERGY   VIRIAL THEOREM ACCURACY
   8.0  12   -7.477373220E+01  7.477365593E+01 -2.000001020E+00  3.8E-06

 NUCLEAR CHARGE  1.0  SYMMETRY SPECIES            S
 N. ELECTRONS    1.0  NUMBER OF PRIMITIVE GTOS    4
                      NUMBER OF CONTRACTED GTOS   2
                      NUMBER OF CLOSED SHELLS     0
                      OPEN SHELL OCCUPATION       1

  ZNUC SCFIT  TOTAL HF ENERGY   KINETIC ENERGY   VIRIAL THEOREM ACCURACY
   1.0   1   -4.977266687E-01  5.190767460E-01 -1.958869132E+00  1.8E-16

 AAAAAAAAAAAAAAAAAAAAAAAAAAAAAAAAAAAAAAAAAAAAAAAAAAAAAAAAAAAAAAAAAAAAAAAAAAAAAAA

 CHARGE NORMALIZATION FACTOR   1.00000000
 TOTAL ATOMIC CHARGES:
   8.0000000   8.0000000   8.0000000   8.0000000   1.0000000   1.0000000
   1.0000000   1.0000000   1.0000000   1.0000000   1.0000000   1.0000000
 TTTTTTTTTTTTTTTTTTTTTTTTTTTTTT MOQGAD      TELAPSE        2.70 TCPU        2.40
 TTTTTTTTTTTTTTTTTTTTTTTTTTTTTT SHELLXN     TELAPSE        6.33 TCPU        3.54
 TTTTTTTTTTTTTTTTTTTTTTTTTTTTTT MONMO3      TELAPSE        6.34 TCPU        3.56
 NUMERICALLY INTEGRATED DENSITY     40.0000040052
 TTTTTTTTTTTTTTTTTTTTTTTTTTTTTT NUMDFT      TELAPSE        6.48 TCPU        3.69
 CYC   0 ETOT(AU) -3.052828532495E+02 DETOT -3.05E+02 tst  0.00E+00 PX  1.00E+00
 TTTTTTTTTTTTTTTTTTTTTTTTTTTTTT DIIS        TELAPSE        6.48 TCPU        3.69
 TTTTTTTTTTTTTTTTTTTTTTTTTTTTTT FDIK        TELAPSE        6.54 TCPU        3.73
 INSULATING STATE
 TOP OF VALENCE BANDS -    BAND     20; K    2; EIG -4.1313880E-01 AU
 TOP OF VALENCE BANDS -    BAND     20; K    1; EIG -4.2319909E-01 AU
 BOTTOM OF VIRTUAL BANDS - BAND     21; K    1; EIG -6.8070559E-02 AU
 INDIRECT ENERGY BAND GAP:   9.3898 eV
 TTTTTTTTTTTTTTTTTTTTTTTTTTTTTT PDIG        TELAPSE        6.54 TCPU        3.74
 CHARGE NORMALIZATION FACTOR   1.00000000
 TOTAL ATOMIC CHARGES:
   9.0773083   9.0773083   9.0666944   9.0666944   0.4608902   0.4608902
   0.4608902   0.4608902   0.4590638   0.4590638   0.4751530   0.4751530
 TTTTTTTTTTTTTTTTTTTTTTTTTTTTTT MOQGAD      TELAPSE        6.54 TCPU        3.74
 TTTTTTTTTTTTTTTTTTTTTTTTTTTTTT SHELLXN     TELAPSE        7.71 TCPU        4.91
 TTTTTTTTTTTTTTTTTTTTTTTTTTTTTT MONMO3      TELAPSE        8.36 TCPU        5.56
 NUMERICALLY INTEGRATED DENSITY     40.0000072700
 TTTTTTTTTTTTTTTTTTTTTTTTTTTTTT NUMDFT      TELAPSE        8.65 TCPU        5.85
 CYC   1 ETOT(AU) -3.050778466614E+02 DETOT  2.05E-01 tst  0.00E+00 PX  1.00E+00
 TTTTTTTTTTTTTTTTTTTTTTTTTTTTTT DIIS        TELAPSE        8.69 TCPU        5.89
 DIIS TEST: 0.41540E+00 AT SCF   CYCLE   1 - MIX   30 %
 TTTTTTTTTTTTTTTTTTTTTTTTTTTTTT FDIK        TELAPSE        8.70 TCPU        5.89
 INSULATING STATE
 TOP OF VALENCE BANDS -    BAND     20; K    2; EIG -3.1387292E-01 AU
 TOP OF VALENCE BANDS -    BAND     20; K    1; EIG -3.2477525E-01 AU
 BOTTOM OF VIRTUAL BANDS - BAND     21; K    1; EIG -5.8337290E-03 AU
 INDIRECT ENERGY BAND GAP:   8.3822 eV
 TTTTTTTTTTTTTTTTTTTTTTTTTTTTTT PDIG        TELAPSE        8.70 TCPU        5.89
 CHARGE NORMALIZATION FACTOR   1.00000000
 TOTAL ATOMIC CHARGES:
   8.8617150   8.8617150   8.8524872   8.8524872   0.5649506   0.5649506
   0.5649506   0.5649506   0.5601642   0.5601642   0.5957324   0.5957324
 TTTTTTTTTTTTTTTTTTTTTTTTTTTTTT MOQGAD      TELAPSE        8.70 TCPU        5.89
 TTTTTTTTTTTTTTTTTTTTTTTTTTTTTT SHELLXN     TELAPSE        9.87 TCPU        7.06
 TTTTTTTTTTTTTTTTTTTTTTTTTTTTTT MONMO3      TELAPSE       10.53 TCPU        7.72
 NUMERICALLY INTEGRATED DENSITY     40.0000045995
 TTTTTTTTTTTTTTTTTTTTTTTTTTTTTT NUMDFT      TELAPSE       10.81 TCPU        8.00
 CYC   2 ETOT(AU) -3.051629838175E+02 DETOT -8.51E-02 tst  3.29E-03 PX  1.28E-01
 TTTTTTTTTTTTTTTTTTTTTTTTTTTTTT DIIS        TELAPSE       10.83 TCPU        8.03
 DIIS TEST: 0.88716E-01 AT SCF   CYCLE   2 - DIIS ACTIVE - HISTORY:     2 CYCLES
 TTTTTTTTTTTTTTTTTTTTTTTTTTTTTT FDIK        TELAPSE       10.85 TCPU        8.03
 INSULATING STATE
 TOP OF VALENCE BANDS -    BAND     20; K    2; EIG -3.5929372E-01 AU
 TOP OF VALENCE BANDS -    BAND     20; K    1; EIG -3.6900358E-01 AU
 BOTTOM OF VIRTUAL BANDS - BAND     21; K    1; EIG -7.6696093E-03 AU
 INDIRECT ENERGY BAND GAP:   9.5682 eV
 TTTTTTTTTTTTTTTTTTTTTTTTTTTTTT PDIG        TELAPSE       10.85 TCPU        8.03
 CHARGE NORMALIZATION FACTOR   1.00000000
 TOTAL ATOMIC CHARGES:
   8.9376205   8.9376205   8.9244002   8.9244002   0.5280228   0.5280228
   0.5280228   0.5280228   0.5258792   0.5258792   0.5560544   0.5560544
 TTTTTTTTTTTTTTTTTTTTTTTTTTTTTT MOQGAD      TELAPSE       10.85 TCPU        8.03
 TTTTTTTTTTTTTTTTTTTTTTTTTTTTTT SHELLXN     TELAPSE       12.02 TCPU        9.20
 TTTTTTTTTTTTTTTTTTTTTTTTTTTTTT MONMO3      TELAPSE       12.67 TCPU        9.85
 NUMERICALLY INTEGRATED DENSITY     40.0000055746
 TTTTTTTTTTTTTTTTTTTTTTTTTTTTTT NUMDFT      TELAPSE       12.96 TCPU       10.13
 CYC   3 ETOT(AU) -3.051865509088E+02 DETOT -2.36E-02 tst  3.18E-04 PX  4.57E-02
 TTTTTTTTTTTTTTTTTTTTTTTTTTTTTT DIIS        TELAPSE       12.96 TCPU       10.13
 DIIS TEST: 0.29618E-03 AT SCF   CYCLE   3 - DIIS ACTIVE - HISTORY:     3 CYCLES
 TTTTTTTTTTTTTTTTTTTTTTTTTTTTTT FDIK        TELAPSE       12.96 TCPU       10.14
 INSULATING STATE
 TOP OF VALENCE BANDS -    BAND     20; K    2; EIG -3.5667349E-01 AU
 TOP OF VALENCE BANDS -    BAND     20; K    1; EIG -3.6618091E-01 AU
 BOTTOM OF VIRTUAL BANDS - BAND     21; K    1; EIG -5.2019965E-03 AU
 INDIRECT ENERGY BAND GAP:   9.5640 eV
 TTTTTTTTTTTTTTTTTTTTTTTTTTTTTT PDIG        TELAPSE       12.96 TCPU       10.14
 CHARGE NORMALIZATION FACTOR   1.00000000
 TOTAL ATOMIC CHARGES:
   8.9333398   8.9333398   8.9231955   8.9231955   0.5298365   0.5298365
   0.5298365   0.5298365   0.5272717   0.5272717   0.5565200   0.5565200
 TTTTTTTTTTTTTTTTTTTTTTTTTTTTTT MOQGAD      TELAPSE       12.96 TCPU       10.14
 TTTTTTTTTTTTTTTTTTTTTTTTTTTTTT SHELLXN     TELAPSE       14.14 TCPU       11.31
 TTTTTTTTTTTTTTTTTTTTTTTTTTTTTT MONMO3      TELAPSE       14.79 TCPU       11.96
 NUMERICALLY INTEGRATED DENSITY     40.0000055448
 TTTTTTTTTTTTTTTTTTTTTTTTTTTTTT NUMDFT      TELAPSE       15.07 TCPU       12.24
 CYC   4 ETOT(AU) -3.051866126346E+02 DETOT -6.17E-05 tst  1.32E-06 PX  2.26E-03
 TTTTTTTTTTTTTTTTTTTTTTTTTTTTTT DIIS        TELAPSE       15.07 TCPU       12.24
 DIIS TEST: 0.16425E-04 AT SCF   CYCLE   4 - DIIS ACTIVE - HISTORY:     4 CYCLES
 TTTTTTTTTTTTTTTTTTTTTTTTTTTTTT FDIK        TELAPSE       15.07 TCPU       12.25
 INSULATING STATE
 TOP OF VALENCE BANDS -    BAND     20; K    2; EIG -3.5675109E-01 AU
 TOP OF VALENCE BANDS -    BAND     20; K    1; EIG -3.6655651E-01 AU
 BOTTOM OF VIRTUAL BANDS - BAND     21; K    1; EIG -4.9760581E-03 AU
 INDIRECT ENERGY BAND GAP:   9.5723 eV
 TTTTTTTTTTTTTTTTTTTTTTTTTTTTTT PDIG        TELAPSE       15.07 TCPU       12.25
 CHARGE NORMALIZATION FACTOR   1.00000000
 TOTAL ATOMIC CHARGES:
   8.9349519   8.9349519   8.9215341   8.9215341   0.5294488   0.5294488
   0.5294488   0.5294488   0.5274302   0.5274302   0.5571863   0.5571863
 TTTTTTTTTTTTTTTTTTTTTTTTTTTTTT MOQGAD      TELAPSE       15.08 TCPU       12.25
 TTTTTTTTTTTTTTTTTTTTTTTTTTTTTT SHELLXN     TELAPSE       16.25 TCPU       13.42
 TTTTTTTTTTTTTTTTTTTTTTTTTTTTTT MONMO3      TELAPSE       16.90 TCPU       14.07
 NUMERICALLY INTEGRATED DENSITY     40.0000055530
 TTTTTTTTTTTTTTTTTTTTTTTTTTTTTT NUMDFT      TELAPSE       17.18 TCPU       14.35
 CYC   5 ETOT(AU) -3.051866143522E+02 DETOT -1.72E-06 tst  2.39E-07 PX  9.20E-04
 TTTTTTTTTTTTTTTTTTTTTTTTTTTTTT DIIS        TELAPSE       17.18 TCPU       14.35
 DIIS TEST: 0.78882E-05 AT SCF   CYCLE   5 - DIIS ACTIVE - HISTORY:     5 CYCLES
 TTTTTTTTTTTTTTTTTTTTTTTTTTTTTT FDIK        TELAPSE       17.19 TCPU       14.36
 INSULATING STATE
 TOP OF VALENCE BANDS -    BAND     20; K    2; EIG -3.5664571E-01 AU
 TOP OF VALENCE BANDS -    BAND     20; K    1; EIG -3.6627300E-01 AU
 BOTTOM OF VIRTUAL BANDS - BAND     21; K    1; EIG -4.9475616E-03 AU
 INDIRECT ENERGY BAND GAP:   9.5702 eV
 TTTTTTTTTTTTTTTTTTTTTTTTTTTTTT PDIG        TELAPSE       17.19 TCPU       14.36
 CHARGE NORMALIZATION FACTOR   1.00000000
 TOTAL ATOMIC CHARGES:
   8.9340363   8.9340363   8.9223877   8.9223877   0.5296303   0.5296303
   0.5296303   0.5296303   0.5272837   0.5272837   0.5570315   0.5570315
 TTTTTTTTTTTTTTTTTTTTTTTTTTTTTT MOQGAD      TELAPSE       17.19 TCPU       14.36
 TTTTTTTTTTTTTTTTTTTTTTTTTTTTTT SHELLXN     TELAPSE       18.36 TCPU       15.53
 TTTTTTTTTTTTTTTTTTTTTTTTTTTTTT MONMO3      TELAPSE       19.01 TCPU       16.18
 NUMERICALLY INTEGRATED DENSITY     40.0000055501
 TTTTTTTTTTTTTTTTTTTTTTTTTTTTTT NUMDFT      TELAPSE       19.30 TCPU       16.47
 CYC   6 ETOT(AU) -3.051866163316E+02 DETOT -1.98E-06 tst  4.81E-08 PX  4.11E-04
 TTTTTTTTTTTTTTTTTTTTTTTTTTTTTT DIIS        TELAPSE       19.30 TCPU       16.47
 DIIS TEST: 0.19764E-06 AT SCF   CYCLE   6 - DIIS ACTIVE - HISTORY:     6 CYCLES
 TTTTTTTTTTTTTTTTTTTTTTTTTTTTTT FDIK        TELAPSE       19.31 TCPU       16.47
 INSULATING STATE
 TOP OF VALENCE BANDS -    BAND     20; K    2; EIG -3.5663259E-01 AU
 TOP OF VALENCE BANDS -    BAND     20; K    1; EIG -3.6627659E-01 AU
 BOTTOM OF VIRTUAL BANDS - BAND     21; K    1; EIG -4.9295953E-03 AU
 INDIRECT ENERGY BAND GAP:   9.5703 eV
 TTTTTTTTTTTTTTTTTTTTTTTTTTTTTT PDIG        TELAPSE       19.31 TCPU       16.47
 CHARGE NORMALIZATION FACTOR   1.00000000
 TOTAL ATOMIC CHARGES:
   8.9340792   8.9340792   8.9222569   8.9222569   0.5296446   0.5296446
   0.5296446   0.5296446   0.5273363   0.5273363   0.5570384   0.5570384
 TTTTTTTTTTTTTTTTTTTTTTTTTTTTTT MOQGAD      TELAPSE       19.32 TCPU       16.47
 TTTTTTTTTTTTTTTTTTTTTTTTTTTTTT SHELLXN     TELAPSE       20.49 TCPU       17.64
 TTTTTTTTTTTTTTTTTTTTTTTTTTTTTT MONMO3      TELAPSE       21.14 TCPU       18.29
 NUMERICALLY INTEGRATED DENSITY     40.0000055502
 TTTTTTTTTTTTTTTTTTTTTTTTTTTTTT NUMDFT      TELAPSE       21.42 TCPU       18.57
 CYC   7 ETOT(AU) -3.051866163650E+02 DETOT -3.34E-08 tst  1.57E-09 PX  7.09E-05
 TTTTTTTTTTTTTTTTTTTTTTTTTTTTTT DIIS        TELAPSE       21.42 TCPU       18.58
 DIIS TEST: 0.53855E-08 AT SCF   CYCLE   7 - DIIS ACTIVE - HISTORY:     7 CYCLES
 TTTTTTTTTTTTTTTTTTTTTTTTTTTTTT FDIK        TELAPSE       21.42 TCPU       18.58
 INSULATING STATE
 TOP OF VALENCE BANDS -    BAND     20; K    2; EIG -3.5663021E-01 AU
 TOP OF VALENCE BANDS -    BAND     20; K    1; EIG -3.6627261E-01 AU
 BOTTOM OF VIRTUAL BANDS - BAND     21; K    1; EIG -4.9276423E-03 AU
 INDIRECT ENERGY BAND GAP:   9.5703 eV
 TTTTTTTTTTTTTTTTTTTTTTTTTTTTTT PDIG        TELAPSE       21.43 TCPU       18.58
 CHARGE NORMALIZATION FACTOR   1.00000000
 TOTAL ATOMIC CHARGES:
   8.9340644   8.9340644   8.9222512   8.9222512   0.5296470   0.5296470
   0.5296470   0.5296470   0.5273365   0.5273365   0.5570540   0.5570540
 TTTTTTTTTTTTTTTTTTTTTTTTTTTTTT MOQGAD      TELAPSE       21.43 TCPU       18.58
 TTTTTTTTTTTTTTTTTTTTTTTTTTTTTT SHELLXN     TELAPSE       22.60 TCPU       19.75
 +++ ENERGIES IN A.U. +++
 ::: EXT EL-POLE                                  -2.9632953196581E+02
 ::: EXT EL-SPHEROPOLE                             3.5684336507027E+00
 ::: BIELET ZONE E-E                               3.8014994016315E+02
 ::: TOTAL E-E                                     8.7388841848044E+01
 ::: TOTAL E-N + N-E                              -6.1763628929041E+02
 ::: TOTAL N-N                                    -5.5296473659867E+01
 ::: KINETIC ENERGY                                3.0324327611294E+02
 ::: PSEUDO TOTAL   ENERGY                        -2.8230064498929E+02
 ::: VIRIAL COEFFICIENT                            1.0357661148360E+00
 TTTTTTTTTTTTTTTTTTTTTTTTTTTTTT MONMO3      TELAPSE       23.25 TCPU       20.40
 NUMERICALLY INTEGRATED DENSITY     40.0000055503
 TTTTTTTTTTTTTTTTTTTTTTTTTTTTTT NUMDFT      TELAPSE       23.54 TCPU       20.69
 CYC   8 ETOT(AU) -3.051866163613E+02 DETOT  3.67E-09 tst  4.60E-11 PX  7.09E-05

 == SCF ENDED - CONVERGENCE ON ENERGY      E(AU) -3.0518661636134E+02 CYCLES   8


 ENERGY EXPRESSION=HARTREE+FOCK EXCH*0.00000+(HSE-3c     EXCH)*1.00000+PBEh-3c    CORR


 TOTAL ENERGY(DFT)(AU)(  8) -3.0518661636134E+02 DE 3.7E-09 tester 4.6E-11
 TTTTTTTTTTTTTTTTTTTTTTTTTTTTTT EDFT        TELAPSE       23.54 TCPU       20.69
 
 INFORMATION **** DFTD3 ENERGY **** CALCULATE DFTD3 ENERGY

           DFT-D V3(BJ)
 DF                                         hse3c     
 parameters
 s6       :    1.0000
 s8       :    0.0000
 a1       :    0.4411
 a2       :    4.5182
 k1 k3    :   16.0000   -4.0000
 Cutoff   :   50.2022
 CN-Cutoff:   21.1671
 
 Edisp /kcal,au:    -7.0792 -0.01128141

 E6    /kcal :    -7.5588
 E8    /kcal :     0.0000
 E6(ABC) "   :   0.479578
 
 INFORMATION **** DFTD3 ENERGY **** NORMAL TERMINATION OF DFTD3 MODULE

 GCP ENERGY CALCULATION
  level           hse3c               basis:hse3c
  Nbf             76
  Atoms           12

  Parameters: 
  sigma     1.0000
  eta       1.4086
  alpha     0.2908
  beta      1.9526

  dmp_scal      4.0000
  dmp_exp       6.0000
 cutoffs: 
   distance [bohr] 60.0
   noise    [a.u.] 2.2E-16
 SR-damping   T
 ** gCP correction **
  Egcp:        0.0523168200 / (a.u.) ||      32.8293 / (kcal/mol)
 INFORMATION **** GCP **** NORMAL TERMINATION OF GCP MODULE

 *******************************************************************************

 DFT-D3-GCP DISPERSION AND COUNTERPOISE CORRECTION

 D3 DISPERSION ENERGY (AU)      -1.1281413193977E-02
 GCP ENERGY (AU)                 5.2316820025799E-02
 TOTAL ENERGY + DISP + GCP (AU) -3.0514558095451E+02

 *******************************************************************************

 EIGENVECTORS IN FORTRAN UNIT  8
 TTTTTTTTTTTTTTTTTTTTTTTTTTTTTT END         TELAPSE       24.03 TCPU       21.11
 EEEEEEEEEE TERMINATION  DATE 25 03 2019 TIME 17:53:04.8
NODE    0 CPU TIME =        21.110
NODE    1 CPU TIME =        23.618
NODE    2 CPU TIME =        23.682
NODE    3 CPU TIME =        23.592
NODE    4 CPU TIME =        23.625
NODE    5 CPU TIME =        23.627
NODE    6 CPU TIME =        23.340
NODE    7 CPU TIME =        23.544
    TOTAL CPU TIME =       186.139
