 PROCESS            5  OF            8  WORKING
 PROCESS            6  OF            8  WORKING
 PROCESS            4  OF            8  WORKING
 PROCESS            0  OF            8  WORKING
 PROCESS            7  OF            8  WORKING

         
 *******************************************************************************
 *                                                                             *
 *                               CRYSTAL17                                     *
 *                      public : 1.0.1 - Feb 1st, 2017                         *
 *                       HTTP://WWW.CRYSTAL.UNITO.IT                           *
 *                                                                             *
 *                              MAIN AUTHORS                                   *
 *                                                                             *
 *  R. DOVESI(1,11), V.R. SAUNDERS(2), C. ROETTI(1,11), R. ORLANDO(1,11),      *
 *  C.M. ZICOVICH-WILSON(1,3), F. PASCALE(4), B. CIVALLERI(1,11),              *
 *  K. DOLL(5), N.M. HARRISON(2,6), I.J. BUSH(7), Ph. D'ARCO(8),               *
 *  M. LLUNELL(9), M. CAUSA'(10), Y. NOEL(8), L. MASCHIO(1,11), A. ERBA(1,11)  *
 *  M. RE'RAT(14), S. CASASSA(1,11)                                            *
 *                                                                             *
 *        CONTRIBUTIONS TO THE CODE HAVE ALSO BEEN GIVEN BY                    *
 *                                                                             *
 *  M. FERRABONE(1,11), M. DE LA PIERRE(1,11), M. FERRERO(1,11),               *
 *  J. BAIMA(1,11), E. ALBANESE(1,11), M.F. PEINTINGER(12), R. BAST(13),       *
 *  B. KIRTMAN(15), V. LACIVITA(1,11), R. DEMICHELIS(1,16)                     *
 *  G. BRANDEBURG(17), S. SALUSTRO(1,11), G. SANSONE(1,11)                     *
 *  M.T. RUGGIERO(18)                                                          *
 *                                                                             *
 * (1) THEORETICAL CHEMISTRY GROUP - UNIVERSITA' DI TORINO - TORINO (ITALY)    *

 * (2) COMPUTATIONAL SCIENCE & ENGINEERING DEPARTMENT - STFC DARESBURY (UK)    *
 * (3) UNIVERSIDAD AUTONOMA DEL ESTADO DE MORELOS - CUERNAVACA (MEXICO)        *
 * (4) UNIVERSITE' DE LORRAINE - NANCY (FRANCE)                                *
 * (5) UNIVERSITAET STUTTGART- STUTTGART (GERMANY)                             *
 * (6) IMPERIAL COLLEGE - LONDON (UK)                                          *
 * (7) OXFORD E-RESEARCH CENTRE - OXFORD (UK)                                  *
 * (8) UPMC - SORBONNE UNIVERSITES - PARIS (FRANCE)                            *
 * (9) UNIVERSIDAD DE BARCELONA - BARCELONA (SPAIN)                            *
 *(10) UNIVERSITA' DI NAPOLI "FEDERICO II" - NAPOLI (ITALY)                    *
 *(11) NIS - NANOSTRUCTURED INTERFACES AND SURFACES - TORINO (ITALY)           *
 *(12) MPI FUER CHEMISCHE ENERGIEKONVERSION - MUELHEIM AN DER RUHR (GERMANY)   *
 *(13) UNIVERSITY OF TROMSO - TROMSO (NORWAY)                                  *
 *(14) UNIVERSITE' DE PAU ET DES PAYS DE L'ADOUR - PAU (FRANCE)                *
 *(15) UNIVERSITY OF CALIFORNIA SANTA BARBARA - SANTA BARBARA (USA)            *
 *(16) CURTIN UNIVERSITY - PERTH (AUSTRALIA)                                   *
 *(17) UNIVERSITY COLLEGE LONDON - LONDON (UK)                                 *
 *(18) CAMBRIDGE UNIVERSITY - CAMBRIDGE (UK)                                   *
 *                                                                             *
 *******************************************************************************
 EEEEEEEEEE STARTING  DATE 25 03 2019 TIME 17:46:50.5
 !drive by JGB                                                                   
 PROCESS            1  OF            8  WORKING
 PROCESS            3  OF            8  WORKING

 CRYSTAL CALCULATION
 (INPUT ACCORDING TO THE INTERNATIONAL TABLES FOR X-RAY CRYSTALLOGRAPHY)
 CRYSTAL FAMILY                       :  MONOCLINIC  
 CRYSTAL CLASS  (GROTH - 1921)        :  MONOCLINIC PRISMATIC                 

 SPACE GROUP (CENTROSYMMETRIC)        :  C 2/M           
 PROCESS            2  OF            8  WORKING

 LATTICE PARAMETERS  (ANGSTROMS AND DEGREES) - CONVENTIONAL CELL
        A           B           C        ALPHA        BETA       GAMMA
    10.38205     7.64944     4.20470    90.00000   112.03466    90.00000


 NUMBER OF IRREDUCIBLE ATOMS IN THE CONVENTIONAL CELL:    7

 INPUT COORDINATES

 ATOM AT. N.              COORDINATES
   1   8     6.745089502804E-01  0.000000000000E+00  4.331213589999E-01
   2   8     1.514087840818E-01  0.000000000000E+00  9.150472122068E-01
   3   8     0.000000000000E+00  7.452349387435E-01  5.000000000000E-01
   4   1     7.457389043054E-01  0.000000000000E+00  6.676110196930E-01
   5   1     7.258555081123E-01  0.000000000000E+00  2.788662445367E-01
   6   1     9.530817521662E-02  1.020842157425E-01  8.009450062042E-01
   7   1     9.356203769690E-01  6.669781980300E-01  5.537012776851E-01

 *******************************************************************************

 << INFORMATION >>: FROM NOW ON, ALL COORDINATES REFER TO THE PRIMITIVE CELL

 *******************************************************************************

 LATTICE PARAMETERS  (ANGSTROMS AND DEGREES) - PRIMITIVE CELL
       A          B          C        ALPHA      BETA     GAMMA        VOLUME
    6.44789    6.44789    4.20470    72.41998 107.58002 107.23480    154.766909

 COORDINATES OF THE EQUIVALENT ATOMS (FRACTIONAL UNITS)

 N. ATOM EQUIV AT. N.          X                  Y                  Z

   1   1   1    8 O    -3.25491049720E-01  3.25491049720E-01  4.33121359000E-01
   2   1   2    8 O     3.25491049720E-01 -3.25491049720E-01 -4.33121359000E-01

   3   2   1    8 O     1.51408784082E-01 -1.51408784082E-01 -8.49527877932E-02
   4   2   2    8 O    -1.51408784082E-01  1.51408784082E-01  8.49527877932E-02

   5   3   1    8 O    -2.54765061257E-01 -2.54765061257E-01 -5.00000000000E-01
   6   3   2    8 O     2.54765061257E-01  2.54765061257E-01  5.00000000000E-01

   7   4   1    1 H    -2.54261095695E-01  2.54261095695E-01 -3.32388980307E-01
   8   4   2    1 H     2.54261095695E-01 -2.54261095695E-01  3.32388980307E-01

   9   5   1    1 H    -2.74144491888E-01  2.74144491888E-01  2.78866244537E-01
  10   5   2    1 H     2.74144491888E-01 -2.74144491888E-01 -2.78866244537E-01

  11   6   1    1 H     1.97392390959E-01  6.77604052588E-03 -1.99054993796E-01
  12   6   2    1 H     6.77604052588E-03  1.97392390959E-01  1.99054993796E-01
  13   6   3    1 H    -1.97392390959E-01 -6.77604052588E-03  1.99054993796E-01
  14   6   4    1 H    -6.77604052588E-03 -1.97392390959E-01 -1.99054993796E-01

  15   7   1    1 H    -3.97401425001E-01 -2.68642178939E-01 -4.46298722315E-01
  16   7   2    1 H    -2.68642178939E-01 -3.97401425001E-01  4.46298722315E-01
  17   7   3    1 H     3.97401425001E-01  2.68642178939E-01  4.46298722315E-01
  18   7   4    1 H     2.68642178939E-01  3.97401425001E-01 -4.46298722315E-01

 NUMBER OF SYMMETRY OPERATORS         :    4
 *******************************************************************************
 * GEOMETRY EDITING - INPUT COORDINATES ARE GIVEN IN ANGSTROM         
 *******************************************************************************

 GEOMETRY NOW FULLY CONSISTENT WITH THE GROUP

 GCALCO - MAX INDICES DIRECT LATTICE VECTOR    12    12    19
 NO.OF VECTORS CREATED 6999 STARS 1833 RMAX   120.30725 BOHR

 GEOMETRY FOR WAVE FUNCTION - DIMENSIONALITY OF THE SYSTEM    3
 (NON PERIODIC DIRECTION: LATTICE PARAMETER FORMALLY SET TO 500)
 *******************************************************************************
 LATTICE PARAMETERS (ANGSTROMS AND DEGREES) - BOHR = 0.5291772083 ANGSTROM
 PRIMITIVE CELL - CENTRING CODE 4/0 VOLUME=   154.766909 - DENSITY  1.159 g/cm^3
         A              B              C           ALPHA      BETA       GAMMA 
     6.44788826     6.44788826     4.20470254    72.419979 107.580021 107.234802
 *******************************************************************************
 ATOMS IN THE ASYMMETRIC UNIT    7 - ATOMS IN THE UNIT CELL:   18
     ATOM                 X/A                 Y/B                 Z/C    
 *******************************************************************************
      1 T   8 O    -3.254910497196E-01  3.254910497196E-01  4.331213589999E-01
      2 F   8 O     3.254910497196E-01 -3.254910497196E-01 -4.331213589999E-01
      3 T   8 O     1.514087840818E-01 -1.514087840818E-01 -8.495278779319E-02
      4 F   8 O    -1.514087840818E-01  1.514087840818E-01  8.495278779319E-02
      5 T   8 O    -2.547650612565E-01 -2.547650612565E-01  5.000000000000E-01
      6 F   8 O     2.547650612565E-01  2.547650612565E-01  5.000000000000E-01
      7 T   1 H    -2.542610956946E-01  2.542610956946E-01 -3.323889803070E-01
      8 F   1 H     2.542610956946E-01 -2.542610956946E-01  3.323889803070E-01
      9 T   1 H    -2.741444918877E-01  2.741444918877E-01  2.788662445367E-01
     10 F   1 H     2.741444918877E-01 -2.741444918877E-01 -2.788662445367E-01
     11 T   1 H     1.973923909591E-01  6.776040525880E-03 -1.990549937958E-01
     12 F   1 H     6.776040525880E-03  1.973923909591E-01  1.990549937958E-01
     13 F   1 H    -1.973923909591E-01 -6.776040525880E-03  1.990549937958E-01
     14 F   1 H    -6.776040525880E-03 -1.973923909591E-01 -1.990549937958E-01
     15 T   1 H    -3.974014250010E-01 -2.686421789390E-01 -4.462987223149E-01
     16 F   1 H    -2.686421789390E-01 -3.974014250010E-01  4.462987223149E-01
     17 F   1 H     3.974014250010E-01  2.686421789390E-01  4.462987223149E-01
     18 F   1 H     2.686421789390E-01  3.974014250010E-01 -4.462987223149E-01

 TRANSFORMATION MATRIX PRIMITIVE-CRYSTALLOGRAPHIC CELL
  1.0000  1.0000  0.0000 -1.0000  1.0000  0.0000  0.0000  0.0000  1.0000

 *******************************************************************************
 CRYSTALLOGRAPHIC CELL (VOLUME=        309.53381700)
         A              B              C           ALPHA      BETA       GAMMA 
    10.38205418     7.64944464     4.20470254    90.000000 112.034658  90.000000

 COORDINATES IN THE CRYSTALLOGRAPHIC CELL
     ATOM                 X/A                 Y/B                 Z/C    
 *******************************************************************************
      1 T   8 O    -3.254910497196E-01  9.276772403286E-18  4.331213589999E-01
      2 F   8 O     3.254910497196E-01  2.144465893772E-17 -4.331213589999E-01
      3 T   8 O     1.514087840818E-01 -1.860597825838E-17 -8.495278779319E-02
      4 F   8 O    -1.514087840818E-01  1.860597825838E-17  8.495278779319E-02
      5 T   8 O     0.000000000000E+00 -2.547650612565E-01 -5.000000000000E-01
      6 F   8 O    -2.775557561563E-17  2.547650612565E-01 -5.000000000000E-01
      7 T   1 H    -2.542610956946E-01  5.236278352765E-19 -3.323889803070E-01
      8 F   1 H     2.542610956946E-01 -1.588434350578E-17  3.323889803070E-01
      9 T   1 H    -2.741444918877E-01  3.368844474018E-17  2.788662445367E-01
     10 F   1 H     2.741444918877E-01 -2.967013399166E-18 -2.788662445367E-01
     11 T   1 H     9.530817521662E-02  1.020842157425E-01 -1.990549937958E-01
     12 F   1 H    -9.530817521662E-02  1.020842157425E-01  1.990549937958E-01
     13 F   1 H    -9.530817521662E-02 -1.020842157425E-01  1.990549937958E-01
     14 F   1 H     9.530817521662E-02 -1.020842157425E-01 -1.990549937958E-01
     15 T   1 H    -6.437962303099E-02 -3.330218019700E-01 -4.462987223149E-01
     16 F   1 H     6.437962303099E-02 -3.330218019700E-01  4.462987223149E-01
     17 F   1 H     6.437962303099E-02  3.330218019700E-01  4.462987223149E-01
     18 F   1 H    -6.437962303099E-02  3.330218019700E-01 -4.462987223149E-01

 T = ATOM BELONGING TO THE ASYMMETRIC UNIT

 ****    4 SYMMOPS - TRANSLATORS IN FRACTIONAL UNITS
 **** MATRICES AND TRANSLATORS IN THE CRYSTALLOGRAPHIC REFERENCE FRAME
   V INV                    ROTATION MATRICES                   TRANSLATORS
   1   1  1.00  0.00  0.00  0.00  1.00  0.00  0.00  0.00  1.00  0.00  0.00  0.00
   2   2  0.00  1.00 -0.00  1.00  0.00  0.00  0.00  0.00 -1.00  0.00  0.00  0.00
   3   3 -1.00 -0.00 -0.00 -0.00 -1.00  0.00  0.00  0.00 -1.00  0.00  0.00  0.00
   4   4 -0.00 -1.00  0.00 -1.00 -0.00 -0.00  0.00  0.00  1.00  0.00  0.00  0.00

 DIRECT LATTICE VECTORS CARTESIAN COMPONENTS (ANGSTROM)
          X                    Y                    Z
   0.519102709000E+01   0.382472232000E+01   0.000000000000E+00
  -0.519102709000E+01   0.382472232000E+01   0.000000000000E+00
  -0.157746721395E+01   0.257463775349E-15   0.389757881752E+01


 CARTESIAN COORDINATES - PRIMITIVE CELL
 *******************************************************************************
 *      ATOM          X(ANGSTROM)         Y(ANGSTROM)         Z(ANGSTROM)
 *******************************************************************************
    1     8 O    -2.485033242826E+00 -3.809526033811E-16 -2.209454183267E+00
    2     8 O     2.485033242826E+00  6.159544916858E-16  2.209454183267E+00
    3     8 O     1.705944437143E+00 -2.187226547165E-17 -3.311101861921E-01
    4     8 O    -1.705944437143E+00  2.187226547165E-17  3.311101861921E-01
    5     8 O    -7.887336069767E-01 -1.948811232288E+00  1.948789408760E+00
    6     8 O    -7.887336069767E-01  1.948811232288E+00  1.948789408760E+00
    7     1 H    -2.115419752654E+00 -3.205800100588E-16 -1.295512248822E+00
    8     1 H     2.115419752654E+00  2.030790659065E-16  1.295512248822E+00
    9     1 H    -1.708618111808E+00 -1.856658192131E-16 -2.810675649893E+00
   10     1 H     1.708618111808E+00  4.206677075177E-16  2.810675649893E+00
   11     1 H     1.303497365382E+00  7.808875569401E-01 -7.758325273402E-01
   12     1 H    -1.303497365382E+00  7.808875569401E-01  7.758325273402E-01
   13     1 H    -1.303497365382E+00 -7.808875569401E-01  7.758325273402E-01
   14     1 H     1.303497365382E+00 -7.808875569401E-01 -7.758325273402E-01
   15     1 H     3.562886768530E-02 -2.547431838083E+00 -1.739484446381E+00
   16     1 H    -3.562886768530E-02 -2.547431838083E+00  1.739484446381E+00
   17     1 H    -3.562886768530E-02  2.547431838083E+00  1.739484446381E+00
   18     1 H     3.562886768530E-02  2.547431838083E+00 -1.739484446381E+00

 *******************************************************************************
 STARTING BASIS SET HANDLING 
 *******************************************************************************

 Loading internal basis set: DEF2-MSVP           

 Please cite in your publication:
 Fully Optimized Contracted Gaussian Basis Sets for Atoms Li to Kr. A. Schäfer, 
 H. Horn and R. Ahlrichs; J. Chem. Phys. 97, 2571 (1992).                       
                                                                                
                    
 S. Grimme, J. G. Brandenburg, C. Bannwarth, and A. Hansen, J. Chem. Phys., 143,
  054107 (2015).                                                                
                                                                                
                    

 *******************************************************************************
 LOCAL ATOMIC FUNCTIONS BASIS SET
 *******************************************************************************
   ATOM   X(AU)   Y(AU)   Z(AU)  N. TYPE  EXPONENT  S COEF   P COEF   D/F/G COEF
 *******************************************************************************
   1 O   -4.696  -0.000  -4.175
                                  1 S  
                                         6.773E+03 1.727E-03 0.000E+00 0.000E+00
                                         1.017E+03 1.325E-02 0.000E+00 0.000E+00
                                         2.313E+02 6.603E-02 0.000E+00 0.000E+00
                                         6.501E+01 2.353E-01 0.000E+00 0.000E+00
                                         2.050E+01 5.498E-01 0.000E+00 0.000E+00
                                  2 S  
                                         6.716E+00 1.000E+00 0.000E+00 0.000E+00
                                  3 S  
                                         1.147E+00 1.000E+00 0.000E+00 0.000E+00
                                  4 S  
                                         3.342E-01 1.000E+00 0.000E+00 0.000E+00
                           5-     7 P  
                                         1.769E+01 0.000E+00 4.359E-02 0.000E+00
                                         3.854E+00 0.000E+00 2.318E-01 0.000E+00
                                         1.047E+00 0.000E+00 5.146E-01 0.000E+00
                           8-    10 P  
                                         2.759E-01 0.000E+00 1.000E+00 0.000E+00
                          11-    15 D  
                                         8.000E-01 0.000E+00 0.000E+00 1.000E+00
   2 O    4.696   0.000   4.175
   3 O    3.224  -0.000  -0.626
   4 O   -3.224   0.000   0.626
   5 O   -1.490  -3.683   3.683
   6 O   -1.490   3.683   3.683
   7 H   -3.998  -0.000  -2.448
                                 91 S  
                                         1.874E+01 1.968E-02 0.000E+00 0.000E+00
                                         2.826E+00 1.380E-01 0.000E+00 0.000E+00
                                         6.401E-01 4.783E-01 0.000E+00 0.000E+00
                                 92 S  
                                         1.756E-01 1.000E+00 0.000E+00 0.000E+00
   8 H    3.998   0.000   2.448
   9 H   -3.229  -0.000  -5.311
  10 H    3.229   0.000   5.311
  11 H    2.463   1.476  -1.466
  12 H   -2.463   1.476   1.466
  13 H   -2.463  -1.476   1.466
  14 H    2.463  -1.476  -1.466
  15 H    0.067  -4.814  -3.287
  16 H   -0.067  -4.814   3.287
  17 H   -0.067   4.814   3.287
  18 H    0.067   4.814  -3.287

 *******************************************************************************
 FINISHED BASIS SET HANDLING 
 *******************************************************************************

 INFORMATION **** SET_MPP **** PCRYSTAL CALCULATION
 INFORMATION **** READM2 **** NEW DEFAULT: FOCK/KS MATRIX MIXING SET TO 30 %
 INFORMATION **** READM2 **** NEW DEFAULT: FULL DIRECT SCF MODE
 INFORMATION **** READM2 **** NEW DEFAULT: COULOMB BIPOLAR BUFFER SET TO 32 Mb
 INFORMATION **** READM2 **** NEW DEFAULT: EXCHANGE BIPOLAR BUFFER SET TO 32 Mb

 *******************************************************************************
 NEW DEFAULT: DFT INTEGRATION GRID INCREASED TO XLGRID
 NEW DEFAULT: DIIS ACCELERATOR ACTIVE
 USE KEYWORD NODIIS TO TURN IT OFF
 *******************************************************************************

 INFORMATION **** RDDFTP **** HSE-3c calculation
 INFORMATION **** RDDFTP **** HSE screened hybrid functional combined with D3 and gCP

PLEASE CITE:
(1) HSE-3c Reference
 J. G. Brandenburg, E. Caldeweyer, and S. Grimme, 
 Phys. Chem. Chem. Phys. 18, 15519 (2016)
(2) DFT-D3 Reference
 S. Grimme, J. Antony, S. Ehrlich,
 and H. Krieg, J. Chem. Phys. 132, 154104 (2010)
(3) gCP Reference
 H. Kruse and S. Grimme J. Chem. Phys, 136, 154101 (2012)
 J. G. Brandenburg, M. Alessio, B. Civalleri, M. F. Peintinger
 T. Bredow, and S. Grimme, J. Phys. Chem. A, 117, 9282 (2013) 

 WARNING **** RDDFTP **** HSE3c-HJS ACTIVE
 RANGE SEPARATION - OMEGA:   0.110000000000000     
 WARNING **** RDDFTP **** HSE-3c has to be combined with def2-mSVP basis set
 WARNING **** RDDFTP **** Note: Harmonic frequencies are scaled by 0.95
 WARNING **** RDDFTP **** as recommended in original publication
 INFORMATION **** BIPOSIZE **** COULOMB BIPOLAR BUFFER SET TO    60000000
 INFORMATION **** EXCHSIZE **** EXCHANGE BIPOLAR BUFFER SIZE SET TO    40000000
 *******************************************************************************
 N. OF ATOMS PER CELL        18  COULOMB OVERLAP TOL         (T1) 10**   -6
 NUMBER OF SHELLS            66  COULOMB PENETRATION TOL     (T2) 10**   -6
 NUMBER OF AO               114  EXCHANGE OVERLAP TOL        (T3) 10**   -6
 N. OF ELECTRONS PER CELL    60  EXCHANGE PSEUDO OVP (F(G))  (T4) 10**   -6
 CORE ELECTRONS PER CELL     12  EXCHANGE PSEUDO OVP (P(G))  (T5) 10**  -12
 N. OF SYMMETRY OPERATORS     4  POLE ORDER IN MONO ZONE                  4
 *******************************************************************************
 TYPE OF CALCULATION :  RESTRICTED CLOSED SHELL
 KOHN-SHAM HAMILTONIAN

 (EXCHANGE)[CORRELATION] FUNCTIONAL:(HSE-3c)[PBEh-3c]

 RANGE-SEPARATED HYBRID FUNCTIONAL 
 OMEGA (SHORT-RANGE)[LONG-RANGE]:(    0.1100)[    0.0000]

 HYBRID EXCHANGE - PERCENTAGE OF FOCK EXCHANGE    42.0000

 CAPPA:IS1  2;IS2  2;IS3  2; K PTS MONK NET   6; SYMMOPS:K SPACE   4;G SPACE   4

 *******************************************************************************
 MAX NUMBER OF SCF CYCLES      50  CONVERGENCE ON DELTAP        10**-16
 WEIGHT OF F(I) IN F(I+1)      30% CONVERGENCE ON ENERGY        10**- 6
 S(K) EIGENV. THRESHOLD  10*10.**-4
 SHRINK. FACT.(MONKH.)    2  2  2  NUMBER OF K POINTS IN THE IBZ      6
 SHRINKING FACTOR(GILAT NET)    2  NUMBER OF K POINTS(GILAT NET)      6
 *******************************************************************************
 *** K POINTS COORDINATES (OBLIQUE COORDINATES IN UNITS OF IS =  2)
   1-R(  0  0  0)   2-R(  1  0  0)   3-R(  1  1  0)   4-R(  0  0  1)
   5-R(  1  0  1)   6-R(  1  1  1)

 DIRECT LATTICE VECTORS COMPON. (A.U.)     RECIP. LATTICE VECTORS COMPON. (A.U.) 
        X            Y            Z              X            Y            Z
    9.8096196    7.2276777    0.0000000      0.3202563    0.4346614    0.1296174
   -9.8096196    7.2276777    0.0000000     -0.3202563    0.4346614   -0.1296174
   -2.9809810    0.0000000    7.3653566      0.0000000    0.0000000    0.8530728

 DISK SPACE FOR EIGENVECTORS (FTN 10)       77976 REALS

 SYMMETRY ADAPTION OF THE BLOCH FUNCTIONS ENABLED
 TTTTTTTTTTTTTTTTTTTTTTTTTTTTTT gordsh1     TELAPSE        0.17 TCPU        0.05

 MATRIX SIZE: P(G)   67966, F(G)   12335, P(G) IRR   10464, F(G) IRR    3972
 MAX G-VECTOR INDEX FOR 1- AND 2-ELECTRON INTEGRALS  79

 TTTTTTTTTTTTTTTTTTTTTTTTTTTTTT INPUT       TELAPSE        0.17 TCPU        0.05

 NEIGHBORS OF THE NON-EQUIVALENT ATOMS

 N = NUMBER OF NEIGHBORS AT DISTANCE R
    ATOM  N     R/ANG      R/AU   NEIGHBORS (ATOM LABELS AND CELL INDICES)
   1 O    1     0.9820     1.8557    9 H    0 0 0
   1 O    1     0.9859     1.8630    7 H    0 0 0
   1 O    2     1.7290     3.2673   16 H    0 1-1   17 H   -1 0-1
   1 O    1     2.6573     5.0216    4 O    0 0 0
   1 O    2     2.6950     5.0928    5 O    0 1-1    6 O   -1 0-1
   1 O    1     2.7193     5.1388    4 O    0 0-1

   3 O    2     0.9846     1.8607   11 H    0 0 0   14 H    0 0 0
   3 O    1     1.6774     3.1698    8 H    0 0 0
   3 O    1     1.7516     3.3100   10 H    0 0-1
   3 O    1     2.6573     5.0216    2 O    0 0 0
   3 O    2     2.6937     5.0904    5 O    0 0-1    6 O    0 0-1
   3 O    1     2.7193     5.1388    2 O    0 0-1

   5 O    2     0.9845     1.8605   15 H    0 0 1   16 H    0 0 0
   5 O    2     1.7335     3.2757   13 H    0 0 0   14 H    0 0 1
   5 O    2     2.6937     5.0904    3 O    0 0 1    4 O    0 0 0
   5 O    2     2.6950     5.0928    1 O    0-1 1    2 O   -1 0 0
   5 O    2     3.0153     5.6981   11 H    0 0 1   12 H    0 0 0
   5 O    2     3.0291     5.7242    7 H    0-1 1    8 H   -1 0 0

   7 H    1     0.9859     1.8630    1 O    0 0 0
   7 H    1     1.5688     2.9646    9 H    0 0 0
   7 H    1     1.6774     3.1698    4 O    0 0 0
   7 H    2     2.1744     4.1090   16 H    0 1-1   17 H   -1 0-1
   7 H    2     2.3579     4.4557   12 H    0 0 0   13 H    0 0 0
   7 H    1     2.6545     5.0163    9 H    0 0 1

   9 H    1     0.9820     1.8557    1 O    0 0 0
   9 H    1     1.5688     2.9646    7 H    0 0 0
   9 H    1     1.7516     3.3100    4 O    0 0-1
   9 H    2     2.1534     4.0694   12 H    0 0-1   13 H    0 0-1
   9 H    2     2.4131     4.5601   16 H    0 1-1   17 H   -1 0-1
   9 H    1     2.6545     5.0163    7 H    0 0-1

  11 H    1     0.9846     1.8607    3 O    0 0 0
  11 H    1     1.5618     2.9513   14 H    0 0 0
  11 H    1     1.7335     3.2757    6 O    0 0-1
  11 H    1     2.1534     4.0694   10 H    0 0-1
  11 H    1     2.2557     4.2626   17 H    0 0-1
  11 H    1     2.3579     4.4557    8 H    0 0 0

  15 H    1     0.9845     1.8605    5 O    0 0-1
  15 H    1     1.5633     2.9542   16 H    0 0-1
  15 H    1     1.7290     3.2673    2 O   -1 0-1
  15 H    1     2.1744     4.1090    8 H   -1 0-1
  15 H    1     2.2557     4.2626   13 H    0 0-1
  15 H    1     2.3784     4.4945   14 H    0 0 0


 SYMMETRY ALLOWED INTERNAL DEGREE(S) OF FREEDOM:  15
 TTTTTTTTTTTTTTTTTTTTTTTTTTTTTT SYMM        TELAPSE        0.39 TCPU        0.25
 TTTTTTTTTTTTTTTTTTTTTTTTTTTTTT INT_SCREEN  TELAPSE        0.39 TCPU        0.25

 DFT PARAMETERS

     ATOM       ELECTRONS   NET CHARGE   R(ANGSTROM)
   1   8  O       8.0000      0.0000     0.74000000
   7   1  H       1.0000      0.0000     1.11000000

 SIZE OF GRID=     102857
 TTTTTTTTTTTTTTTTTTTTTTTTTTTTTT MAKE_GRID2  TELAPSE        2.67 TCPU        2.52
 BECKE WEIGHT FUNCTION
 RADSAFE =     2.00
 TOLERANCES - DENSITY:10**- 6; POTENTIAL:10**- 9; GRID WGT:10**-14

 RADIAL INTEGRATION  - INTERVALS (POINTS,UPPER LIMIT):            1( 75,  4.0*R)

 ANGULAR INTEGRATION - INTERVALS (ACCURACY LEVEL [N. POINTS] UPPER LIMIT):
  1(  4[  86]   0.2)  2(  8[ 194]   0.5)  3( 12[ 350]   0.9)  4( 16[ 974]   3.5)
  5( 12[ 350]9999.0)
 TTTTTTTTTTTTTTTTTTTTTTTTTTTTTT INT_CALC    TELAPSE        2.69 TCPU        2.54
 EEEEEEEEEE INT_CALC TERMINATION  DATE 25 03 2019 TIME 17:46:53.1

 *******************************************************************************
 !drive by JGB                                                                   
 CRYSTAL - SCF - TYPE OF CALCULATION :  RESTRICTED CLOSED SHELL
 *******************************************************************************

 CAPPA:IS1  2;IS2  2;IS3  2; K PTS MONK NET   6; SYMMOPS:K SPACE   4;G SPACE   4

 TTTTTTTTTTTTTTTTTTTTTTTTTTTTTT SDIK        TELAPSE        2.76 TCPU        2.56

 AAAAAAAAAAAAAAAAAAAAAAAAAAAAAAAAAAAAAAAAAAAAAAAAAAAAAAAAAAAAAAAAAAAAAAAAAAAAAAA
         ATOMIC WAVEFUNCTION(S)


 NUCLEAR CHARGE  8.0  SYMMETRY SPECIES            S    P
 N. ELECTRONS    8.0  NUMBER OF PRIMITIVE GTOS    8    4
                      NUMBER OF CONTRACTED GTOS   4    2
                      NUMBER OF CLOSED SHELLS     2    0
                      OPEN SHELL OCCUPATION       0    4

  ZNUC SCFIT  TOTAL HF ENERGY   KINETIC ENERGY   VIRIAL THEOREM ACCURACY
   8.0  12   -7.477373220E+01  7.477365593E+01 -2.000001020E+00  3.8E-06

 NUCLEAR CHARGE  1.0  SYMMETRY SPECIES            S
 N. ELECTRONS    1.0  NUMBER OF PRIMITIVE GTOS    4
                      NUMBER OF CONTRACTED GTOS   2
                      NUMBER OF CLOSED SHELLS     0
                      OPEN SHELL OCCUPATION       1

  ZNUC SCFIT  TOTAL HF ENERGY   KINETIC ENERGY   VIRIAL THEOREM ACCURACY
   1.0   1   -4.977266687E-01  5.190767460E-01 -1.958869132E+00  1.8E-16

 AAAAAAAAAAAAAAAAAAAAAAAAAAAAAAAAAAAAAAAAAAAAAAAAAAAAAAAAAAAAAAAAAAAAAAAAAAAAAAA

 CHARGE NORMALIZATION FACTOR   1.00000000
 TOTAL ATOMIC CHARGES:
   8.0000000   8.0000000   8.0000000   8.0000000   8.0000000   8.0000000
   1.0000000   1.0000000   1.0000000   1.0000000   1.0000000   1.0000000
   1.0000000   1.0000000   1.0000000   1.0000000   1.0000000   1.0000000
 TTTTTTTTTTTTTTTTTTTTTTTTTTTTTT MOQGAD      TELAPSE        2.78 TCPU        2.58
 TTTTTTTTTTTTTTTTTTTTTTTTTTTTTT SHELLXN     TELAPSE        5.57 TCPU        5.35
 TTTTTTTTTTTTTTTTTTTTTTTTTTTTTT MONMO3      TELAPSE        6.01 TCPU        5.79
 NUMERICALLY INTEGRATED DENSITY     59.9999952774
 TTTTTTTTTTTTTTTTTTTTTTTTTTTTTT NUMDFT      TELAPSE        6.21 TCPU        6.00
 CYC   0 ETOT(AU) -4.579759287190E+02 DETOT -4.58E+02 tst  0.00E+00 PX  1.00E+00
 TTTTTTTTTTTTTTTTTTTTTTTTTTTTTT DIIS        TELAPSE        6.22 TCPU        6.00
 TTTTTTTTTTTTTTTTTTTTTTTTTTTTTT FDIK        TELAPSE        6.43 TCPU        6.00
 INSULATING STATE
 TOP OF VALENCE BANDS -    BAND     30; K    6; EIG -4.1293605E-01 AU
 TOP OF VALENCE BANDS -    BAND     30; K    1; EIG -4.2058306E-01 AU
 BOTTOM OF VIRTUAL BANDS - BAND     31; K    1; EIG -7.7534255E-02 AU
 INDIRECT ENERGY BAND GAP:   9.1268 eV
 TTTTTTTTTTTTTTTTTTTTTTTTTTTTTT PDIG        TELAPSE        6.44 TCPU        6.00
 CHARGE NORMALIZATION FACTOR   1.00000000
 TOTAL ATOMIC CHARGES:
   9.0781720   9.0781720   9.0679121   9.0679121   9.0747453   9.0747453
   0.4613829   0.4613829   0.4652824   0.4652824   0.4625039   0.4625039
   0.4625039   0.4625039   0.4637488   0.4637488   0.4637488   0.4637488
 TTTTTTTTTTTTTTTTTTTTTTTTTTTTTT MOQGAD      TELAPSE        6.44 TCPU        6.00
 TTTTTTTTTTTTTTTTTTTTTTTTTTTTTT SHELLXN     TELAPSE        9.28 TCPU        8.84
 TTTTTTTTTTTTTTTTTTTTTTTTTTTTTT MONMO3      TELAPSE        9.74 TCPU        9.31
 NUMERICALLY INTEGRATED DENSITY     59.9999933811
 TTTTTTTTTTTTTTTTTTTTTTTTTTTTTT NUMDFT      TELAPSE       10.19 TCPU        9.75
 CYC   1 ETOT(AU) -4.576317850647E+02 DETOT  3.44E-01 tst  0.00E+00 PX  1.00E+00
 TTTTTTTTTTTTTTTTTTTTTTTTTTTTTT DIIS        TELAPSE       10.19 TCPU        9.76
 DIIS TEST: 0.59323E+00 AT SCF   CYCLE   1 - MIX   30 %
 TTTTTTTTTTTTTTTTTTTTTTTTTTTTTT FDIK        TELAPSE       10.20 TCPU        9.76
 INSULATING STATE
 TOP OF VALENCE BANDS -    BAND     30; K    6; EIG -3.1369084E-01 AU
 TOP OF VALENCE BANDS -    BAND     30; K    1; EIG -3.2427614E-01 AU
 BOTTOM OF VIRTUAL BANDS - BAND     31; K    1; EIG -1.7165910E-02 AU
 INDIRECT ENERGY BAND GAP:   8.0689 eV
 TTTTTTTTTTTTTTTTTTTTTTTTTTTTTT PDIG        TELAPSE       10.20 TCPU        9.76
 CHARGE NORMALIZATION FACTOR   1.00000000
 TOTAL ATOMIC CHARGES:
   8.8666313   8.8666313   8.8643782   8.8643782   8.8683754   8.8683754
   0.5606943   0.5606943   0.5736242   0.5736242   0.5658713   0.5658713
   0.5658713   0.5658713   0.5672770   0.5672770   0.5672770   0.5672770
 TTTTTTTTTTTTTTTTTTTTTTTTTTTTTT MOQGAD      TELAPSE       10.20 TCPU        9.76
 TTTTTTTTTTTTTTTTTTTTTTTTTTTTTT SHELLXN     TELAPSE       13.05 TCPU       12.61
 TTTTTTTTTTTTTTTTTTTTTTTTTTTTTT MONMO3      TELAPSE       13.50 TCPU       13.06
 NUMERICALLY INTEGRATED DENSITY     59.9999934672
 TTTTTTTTTTTTTTTTTTTTTTTTTTTTTT NUMDFT      TELAPSE       13.93 TCPU       13.49
 CYC   2 ETOT(AU) -4.577549158932E+02 DETOT -1.23E-01 tst  3.12E-03 PX  1.24E-01
 TTTTTTTTTTTTTTTTTTTTTTTTTTTTTT DIIS        TELAPSE       13.96 TCPU       13.52
 DIIS TEST: 0.12482E+00 AT SCF   CYCLE   2 - DIIS ACTIVE - HISTORY:     2 CYCLES
 TTTTTTTTTTTTTTTTTTTTTTTTTTTTTT FDIK        TELAPSE       13.97 TCPU       13.52
 INSULATING STATE
 TOP OF VALENCE BANDS -    BAND     30; K    6; EIG -3.5772677E-01 AU
 TOP OF VALENCE BANDS -    BAND     30; K    1; EIG -3.6809360E-01 AU
 BOTTOM OF VIRTUAL BANDS - BAND     31; K    1; EIG -1.8857403E-02 AU
 INDIRECT ENERGY BAND GAP:   9.2211 eV
 TTTTTTTTTTTTTTTTTTTTTTTTTTTTTT PDIG        TELAPSE       13.97 TCPU       13.52
 CHARGE NORMALIZATION FACTOR   1.00000000
 TOTAL ATOMIC CHARGES:
   8.9397501   8.9397501   8.9339282   8.9339282   8.9393951   8.9393951
   0.5254309   0.5254309   0.5368921   0.5368921   0.5305572   0.5305572
   0.5305572   0.5305572   0.5317447   0.5317447   0.5317447   0.5317447
 TTTTTTTTTTTTTTTTTTTTTTTTTTTTTT MOQGAD      TELAPSE       13.97 TCPU       13.52
 TTTTTTTTTTTTTTTTTTTTTTTTTTTTTT SHELLXN     TELAPSE       16.82 TCPU       16.37
 TTTTTTTTTTTTTTTTTTTTTTTTTTTTTT MONMO3      TELAPSE       17.27 TCPU       16.82
 NUMERICALLY INTEGRATED DENSITY     59.9999934753
 TTTTTTTTTTTTTTTTTTTTTTTTTTTTTT NUMDFT      TELAPSE       17.70 TCPU       17.25
 CYC   3 ETOT(AU) -4.577877616411E+02 DETOT -3.28E-02 tst  3.02E-04 PX  4.41E-02
 TTTTTTTTTTTTTTTTTTTTTTTTTTTTTT DIIS        TELAPSE       17.70 TCPU       17.25
 DIIS TEST: 0.28704E-03 AT SCF   CYCLE   3 - DIIS ACTIVE - HISTORY:     3 CYCLES
 TTTTTTTTTTTTTTTTTTTTTTTTTTTTTT FDIK        TELAPSE       17.71 TCPU       17.25
 INSULATING STATE
 TOP OF VALENCE BANDS -    BAND     30; K    6; EIG -3.5609737E-01 AU
 TOP OF VALENCE BANDS -    BAND     30; K    1; EIG -3.6593511E-01 AU
 BOTTOM OF VIRTUAL BANDS - BAND     31; K    1; EIG -1.6742316E-02 AU
 INDIRECT ENERGY BAND GAP:   9.2343 eV
 TTTTTTTTTTTTTTTTTTTTTTTTTTTTTT PDIG        TELAPSE       17.71 TCPU       17.25
 CHARGE NORMALIZATION FACTOR   1.00000000
 TOTAL ATOMIC CHARGES:
   8.9366927   8.9366927   8.9330790   8.9330790   8.9372438   8.9372438
   0.5267663   0.5267663   0.5378961   0.5378961   0.5312848   0.5312848
   0.5312848   0.5312848   0.5328762   0.5328762   0.5328762   0.5328762
 TTTTTTTTTTTTTTTTTTTTTTTTTTTTTT MOQGAD      TELAPSE       17.71 TCPU       17.25
 TTTTTTTTTTTTTTTTTTTTTTTTTTTTTT SHELLXN     TELAPSE       20.55 TCPU       20.09
 TTTTTTTTTTTTTTTTTTTTTTTTTTTTTT MONMO3      TELAPSE       21.01 TCPU       20.55
 NUMERICALLY INTEGRATED DENSITY     59.9999934785
 TTTTTTTTTTTTTTTTTTTTTTTTTTTTTT NUMDFT      TELAPSE       21.44 TCPU       20.98
 CYC   4 ETOT(AU) -4.577878258494E+02 DETOT -6.42E-05 tst  9.84E-07 PX  1.84E-03
 TTTTTTTTTTTTTTTTTTTTTTTTTTTTTT DIIS        TELAPSE       21.44 TCPU       20.98
 DIIS TEST: 0.12097E-04 AT SCF   CYCLE   4 - DIIS ACTIVE - HISTORY:     4 CYCLES
 TTTTTTTTTTTTTTTTTTTTTTTTTTTTTT FDIK        TELAPSE       21.52 TCPU       20.98
 INSULATING STATE
 TOP OF VALENCE BANDS -    BAND     30; K    6; EIG -3.5575098E-01 AU
 TOP OF VALENCE BANDS -    BAND     30; K    1; EIG -3.6601250E-01 AU
 BOTTOM OF VIRTUAL BANDS - BAND     31; K    1; EIG -1.6527386E-02 AU
 INDIRECT ENERGY BAND GAP:   9.2307 eV
 TTTTTTTTTTTTTTTTTTTTTTTTTTTTTT PDIG        TELAPSE       21.52 TCPU       20.98
 CHARGE NORMALIZATION FACTOR   1.00000000
 TOTAL ATOMIC CHARGES:
   8.9378558   8.9378558   8.9317731   8.9317731   8.9373638   8.9373638
   0.5265325   0.5265325   0.5377347   0.5377347   0.5316242   0.5316242
   0.5316242   0.5316242   0.5327458   0.5327458   0.5327458   0.5327458
 TTTTTTTTTTTTTTTTTTTTTTTTTTTTTT MOQGAD      TELAPSE       21.52 TCPU       20.99
 TTTTTTTTTTTTTTTTTTTTTTTTTTTTTT SHELLXN     TELAPSE       24.36 TCPU       23.82
 TTTTTTTTTTTTTTTTTTTTTTTTTTTTTT MONMO3      TELAPSE       24.82 TCPU       24.28
 NUMERICALLY INTEGRATED DENSITY     59.9999934840
 TTTTTTTTTTTTTTTTTTTTTTTTTTTTTT NUMDFT      TELAPSE       25.25 TCPU       24.71
 CYC   5 ETOT(AU) -4.577878276219E+02 DETOT -1.77E-06 tst  1.05E-07 PX  7.45E-04
 TTTTTTTTTTTTTTTTTTTTTTTTTTTTTT DIIS        TELAPSE       25.25 TCPU       24.71
 DIIS TEST: 0.53378E-05 AT SCF   CYCLE   5 - DIIS ACTIVE - HISTORY:     5 CYCLES
 TTTTTTTTTTTTTTTTTTTTTTTTTTTTTT FDIK        TELAPSE       25.25 TCPU       24.71
 INSULATING STATE
 TOP OF VALENCE BANDS -    BAND     30; K    6; EIG -3.5588717E-01 AU
 TOP OF VALENCE BANDS -    BAND     30; K    1; EIG -3.6589881E-01 AU
 BOTTOM OF VIRTUAL BANDS - BAND     31; K    1; EIG -1.6515161E-02 AU
 INDIRECT ENERGY BAND GAP:   9.2348 eV
 TTTTTTTTTTTTTTTTTTTTTTTTTTTTTT PDIG        TELAPSE       25.25 TCPU       24.71
 CHARGE NORMALIZATION FACTOR   1.00000000
 TOTAL ATOMIC CHARGES:
   8.9371622   8.9371622   8.9324927   8.9324927   8.9372822   8.9372822
   0.5266704   0.5266704   0.5378469   0.5378469   0.5314514   0.5314514
   0.5314514   0.5314514   0.5328215   0.5328215   0.5328215   0.5328215
 TTTTTTTTTTTTTTTTTTTTTTTTTTTTTT MOQGAD      TELAPSE       25.26 TCPU       24.72
 TTTTTTTTTTTTTTTTTTTTTTTTTTTTTT SHELLXN     TELAPSE       28.10 TCPU       27.55
 TTTTTTTTTTTTTTTTTTTTTTTTTTTTTT MONMO3      TELAPSE       28.56 TCPU       28.01
 NUMERICALLY INTEGRATED DENSITY     59.9999934817
 TTTTTTTTTTTTTTTTTTTTTTTTTTTTTT NUMDFT      TELAPSE       28.98 TCPU       28.44
 CYC   6 ETOT(AU) -4.577878290365E+02 DETOT -1.41E-06 tst  2.33E-08 PX  3.43E-04
 TTTTTTTTTTTTTTTTTTTTTTTTTTTTTT DIIS        TELAPSE       28.98 TCPU       28.44
 DIIS TEST: 0.14393E-06 AT SCF   CYCLE   6 - DIIS ACTIVE - HISTORY:     6 CYCLES
 TTTTTTTTTTTTTTTTTTTTTTTTTTTTTT FDIK        TELAPSE       28.99 TCPU       28.45
 INSULATING STATE
 TOP OF VALENCE BANDS -    BAND     30; K    6; EIG -3.5585831E-01 AU
 TOP OF VALENCE BANDS -    BAND     30; K    1; EIG -3.6589913E-01 AU
 BOTTOM OF VIRTUAL BANDS - BAND     31; K    1; EIG -1.6504143E-02 AU
 INDIRECT ENERGY BAND GAP:   9.2343 eV
 TTTTTTTTTTTTTTTTTTTTTTTTTTTTTT PDIG        TELAPSE       28.99 TCPU       28.45
 CHARGE NORMALIZATION FACTOR   1.00000000
 TOTAL ATOMIC CHARGES:
   8.9372057   8.9372057   8.9323749   8.9323749   8.9372504   8.9372504
   0.5266743   0.5266743   0.5378512   0.5378512   0.5314861   0.5314861
   0.5314861   0.5314861   0.5328357   0.5328357   0.5328357   0.5328357
 TTTTTTTTTTTTTTTTTTTTTTTTTTTTTT MOQGAD      TELAPSE       28.99 TCPU       28.45
 TTTTTTTTTTTTTTTTTTTTTTTTTTTTTT SHELLXN     TELAPSE       31.84 TCPU       31.30
 TTTTTTTTTTTTTTTTTTTTTTTTTTTTTT MONMO3      TELAPSE       32.29 TCPU       31.75
 NUMERICALLY INTEGRATED DENSITY     59.9999934822
 TTTTTTTTTTTTTTTTTTTTTTTTTTTTTT NUMDFT      TELAPSE       32.72 TCPU       32.17
 CYC   7 ETOT(AU) -4.577878290528E+02 DETOT -1.63E-08 tst  6.40E-10 PX  6.90E-05
 TTTTTTTTTTTTTTTTTTTTTTTTTTTTTT DIIS        TELAPSE       33.57 TCPU       33.03
 DIIS TEST: 0.17151E-08 AT SCF   CYCLE   7 - DIIS ACTIVE - HISTORY:     7 CYCLES
 TTTTTTTTTTTTTTTTTTTTTTTTTTTTTT FDIK        TELAPSE       33.58 TCPU       33.03
 INSULATING STATE
 TOP OF VALENCE BANDS -    BAND     30; K    6; EIG -3.5585989E-01 AU
 TOP OF VALENCE BANDS -    BAND     30; K    1; EIG -3.6589689E-01 AU
 BOTTOM OF VIRTUAL BANDS - BAND     31; K    1; EIG -1.6503623E-02 AU
 INDIRECT ENERGY BAND GAP:   9.2344 eV
 TTTTTTTTTTTTTTTTTTTTTTTTTTTTTT PDIG        TELAPSE       33.58 TCPU       33.03
 CHARGE NORMALIZATION FACTOR   1.00000000
 TOTAL ATOMIC CHARGES:
   8.9371907   8.9371907   8.9323770   8.9323770   8.9372500   8.9372500
   0.5266791   0.5266791   0.5378554   0.5378554   0.5314880   0.5314880
   0.5314880   0.5314880   0.5328360   0.5328360   0.5328360   0.5328360
 TTTTTTTTTTTTTTTTTTTTTTTTTTTTTT MOQGAD      TELAPSE       33.58 TCPU       33.04
 TTTTTTTTTTTTTTTTTTTTTTTTTTTTTT SHELLXN     TELAPSE       36.42 TCPU       35.87
 +++ ENERGIES IN A.U. +++
 ::: EXT EL-POLE                                  -4.8658983081823E+02
 ::: EXT EL-SPHEROPOLE                             5.7199979283685E+00
 ::: BIELET ZONE E-E                               6.0714151128049E+02
 ::: TOTAL E-E                                     1.2627167839063E+02
 ::: TOTAL E-N + N-E                              -9.1612308740356E+02
 ::: TOTAL N-N                                    -8.8479038637255E+01
 ::: KINETIC ENERGY                                4.5488281931489E+02
 ::: PSEUDO TOTAL   ENERGY                        -4.2344762833530E+02
 ::: VIRIAL COEFFICIENT                            1.0357897088319E+00
 TTTTTTTTTTTTTTTTTTTTTTTTTTTTTT MONMO3      TELAPSE       36.88 TCPU       36.33
 NUMERICALLY INTEGRATED DENSITY     59.9999934823
 TTTTTTTTTTTTTTTTTTTTTTTTTTTTTT NUMDFT      TELAPSE       37.31 TCPU       36.76
 CYC   8 ETOT(AU) -4.577878290515E+02 DETOT  1.26E-09 tst  1.21E-11 PX  6.90E-05

 == SCF ENDED - CONVERGENCE ON ENERGY      E(AU) -4.5778782905153E+02 CYCLES   8


 ENERGY EXPRESSION=HARTREE+FOCK EXCH*0.00000+(HSE-3c     EXCH)*1.00000+PBEh-3c    CORR


 TOTAL ENERGY(DFT)(AU)(  8) -4.5778782905153E+02 DE 1.3E-09 tester 1.2E-11
 TTTTTTTTTTTTTTTTTTTTTTTTTTTTTT EDFT        TELAPSE       37.31 TCPU       36.76
 
 INFORMATION **** DFTD3 ENERGY **** CALCULATE DFTD3 ENERGY

           DFT-D V3(BJ)
 DF                                         hse3c     
 parameters
 s6       :    1.0000
 s8       :    0.0000
 a1       :    0.4411
 a2       :    4.5182
 k1 k3    :   16.0000   -4.0000
 Cutoff   :   50.2022
 CN-Cutoff:   21.1671
 
 Edisp /kcal,au:   -11.3190 -0.01803803

 E6    /kcal :   -12.1623
 E8    /kcal :     0.0000
 E6(ABC) "   :   0.843264
 
 INFORMATION **** DFTD3 ENERGY **** NORMAL TERMINATION OF DFTD3 MODULE

 GCP ENERGY CALCULATION
  level           hse3c               basis:hse3c
  Nbf            114
  Atoms           18

  Parameters: 
  sigma     1.0000
  eta       1.4086
  alpha     0.2908
  beta      1.9526

  dmp_scal      4.0000
  dmp_exp       6.0000
 cutoffs: 
   distance [bohr] 60.0
   noise    [a.u.] 2.2E-16
 SR-damping   T
 ** gCP correction **
  Egcp:        0.0795512850 / (a.u.) ||      49.9192 / (kcal/mol)
 INFORMATION **** GCP **** NORMAL TERMINATION OF GCP MODULE

 *******************************************************************************

 DFT-D3-GCP DISPERSION AND COUNTERPOISE CORRECTION

 D3 DISPERSION ENERGY (AU)      -1.8038034511121E-02
 GCP ENERGY (AU)                 7.9551284986615E-02
 TOTAL ENERGY + DISP + GCP (AU) -4.5772631580105E+02

 *******************************************************************************

 EIGENVECTORS IN FORTRAN UNIT  8
 TTTTTTTTTTTTTTTTTTTTTTTTTTTTTT END         TELAPSE       37.89 TCPU       37.33
 EEEEEEEEEE TERMINATION  DATE 25 03 2019 TIME 17:47:28.3
NODE    0 CPU TIME =        37.329
NODE    1 CPU TIME =        37.490
NODE    2 CPU TIME =        37.546
NODE    3 CPU TIME =        37.378
NODE    4 CPU TIME =        37.577
NODE    5 CPU TIME =        37.450
NODE    6 CPU TIME =        36.660
NODE    7 CPU TIME =        36.580
    TOTAL CPU TIME =       298.009
