 PROCESS            5  OF            8  WORKING
 PROCESS            1  OF            8  WORKING
 PROCESS            3  OF            8  WORKING
 PROCESS            7  OF            8  WORKING
 PROCESS            4  OF            8  WORKING
 PROCESS            0  OF            8  WORKING
 PROCESS            6  OF            8  WORKING
 PROCESS            2  OF            8  WORKING

         
 *******************************************************************************
 *                                                                             *
 *                               CRYSTAL17                                     *
 *                      public : 1.0.1 - Feb 1st, 2017                         *
 *                       HTTP://WWW.CRYSTAL.UNITO.IT                           *
 *                                                                             *
 *                              MAIN AUTHORS                                   *
 *                                                                             *
 *  R. DOVESI(1,11), V.R. SAUNDERS(2), C. ROETTI(1,11), R. ORLANDO(1,11),      *
 *  C.M. ZICOVICH-WILSON(1,3), F. PASCALE(4), B. CIVALLERI(1,11),              *
 *  K. DOLL(5), N.M. HARRISON(2,6), I.J. BUSH(7), Ph. D'ARCO(8),               *
 *  M. LLUNELL(9), M. CAUSA'(10), Y. NOEL(8), L. MASCHIO(1,11), A. ERBA(1,11)  *
 *  M. RE'RAT(14), S. CASASSA(1,11)                                            *
 *                                                                             *
 *        CONTRIBUTIONS TO THE CODE HAVE ALSO BEEN GIVEN BY                    *
 *                                                                             *
 *  M. FERRABONE(1,11), M. DE LA PIERRE(1,11), M. FERRERO(1,11),               *
 *  J. BAIMA(1,11), E. ALBANESE(1,11), M.F. PEINTINGER(12), R. BAST(13),       *
 *  B. KIRTMAN(15), V. LACIVITA(1,11), R. DEMICHELIS(1,16)                     *
 *  G. BRANDEBURG(17), S. SALUSTRO(1,11), G. SANSONE(1,11)                     *
 *  M.T. RUGGIERO(18)                                                          *
 *                                                                             *
 * (1) THEORETICAL CHEMISTRY GROUP - UNIVERSITA' DI TORINO - TORINO (ITALY)    *

 * (2) COMPUTATIONAL SCIENCE & ENGINEERING DEPARTMENT - STFC DARESBURY (UK)    *
 * (3) UNIVERSIDAD AUTONOMA DEL ESTADO DE MORELOS - CUERNAVACA (MEXICO)        *
 * (4) UNIVERSITE' DE LORRAINE - NANCY (FRANCE)                                *
 * (5) UNIVERSITAET STUTTGART- STUTTGART (GERMANY)                             *
 * (6) IMPERIAL COLLEGE - LONDON (UK)                                          *
 * (7) OXFORD E-RESEARCH CENTRE - OXFORD (UK)                                  *
 * (8) UPMC - SORBONNE UNIVERSITES - PARIS (FRANCE)                            *
 * (9) UNIVERSIDAD DE BARCELONA - BARCELONA (SPAIN)                            *
 *(10) UNIVERSITA' DI NAPOLI "FEDERICO II" - NAPOLI (ITALY)                    *
 *(11) NIS - NANOSTRUCTURED INTERFACES AND SURFACES - TORINO (ITALY)           *
 *(12) MPI FUER CHEMISCHE ENERGIEKONVERSION - MUELHEIM AN DER RUHR (GERMANY)   *
 *(13) UNIVERSITY OF TROMSO - TROMSO (NORWAY)                                  *
 *(14) UNIVERSITE' DE PAU ET DES PAYS DE L'ADOUR - PAU (FRANCE)                *
 *(15) UNIVERSITY OF CALIFORNIA SANTA BARBARA - SANTA BARBARA (USA)            *
 *(16) CURTIN UNIVERSITY - PERTH (AUSTRALIA)                                   *
 *(17) UNIVERSITY COLLEGE LONDON - LONDON (UK)                                 *
 *(18) CAMBRIDGE UNIVERSITY - CAMBRIDGE (UK)                                   *
 *                                                                             *
 *******************************************************************************
 EEEEEEEEEE STARTING  DATE 25 03 2019 TIME 17:46:00.9
 !drive by JGB                                                                   

 CRYSTAL CALCULATION
 (INPUT ACCORDING TO THE INTERNATIONAL TABLES FOR X-RAY CRYSTALLOGRAPHY)
 CRYSTAL FAMILY                       :  TRICLINIC   
 CRYSTAL CLASS  (GROTH - 1921)        :  TRICLINIC PEDIAL                     

 SPACE GROUP (NONCENTROSYMMETRIC)     :  P 1             

 LATTICE PARAMETERS  (ANGSTROMS AND DEGREES) - CONVENTIONAL CELL
        A           B           C        ALPHA        BETA       GAMMA
     6.91601     6.10593     7.84602    94.51220   111.08899    90.30781


 NUMBER OF IRREDUCIBLE ATOMS IN THE CONVENTIONAL CELL:   36

 INPUT COORDINATES

 ATOM AT. N.              COORDINATES
   1   8     6.422253000214E-02  1.326864247889E-01  1.899486519141E-02
   2   8     4.290836150803E-01  3.686319023936E-01  4.934023845437E-01
   3   8     5.234532798747E-01  6.106192021406E-01  9.641917001140E-01
   4   8     4.191245118206E-02  8.694952705528E-01  5.743659747580E-01
   5   8     7.928701131618E-01  2.347150899107E-01  4.503718740808E-01
   6   8     9.288600480966E-02  6.043204607375E-01  2.825638375891E-01
   7   8     9.629169305176E-02  4.304725522769E-01  7.908895700961E-01
   8   8     8.599839929416E-01  7.427722285756E-01  8.691276830326E-01
   9   8     5.732869942193E-01  7.910564021750E-01  5.420203517555E-01
  10   8     3.984527060608E-01  7.267352473737E-02  7.177502514742E-01
  11   8     3.631980908904E-01  8.514396027383E-01  1.836702223136E-01
  12   8     7.055154474427E-01  2.312880146237E-01  8.429664859279E-02
  13   1     9.128853578632E-02  2.319652196052E-01  9.365384915193E-01
  14   1     1.933701168279E-01  6.604601771780E-02  9.069230336777E-02
  15   1     2.940535988696E-01  3.981305678238E-01  4.041134436154E-01
  16   1     4.075180400249E-01  2.796100834495E-01  5.845261121321E-01
  17   1     6.297234490429E-01  6.807199420142E-01  9.300874503855E-01
  18   1     5.853606498282E-01  4.730537154669E-01  1.125245117168E-02
  19   1     4.679392424131E-02  7.738612111069E-01  4.707364861485E-01
  20   1     9.305420679067E-01  9.698562216740E-01  5.256199747935E-01
  21   1     6.609123037678E-01  2.709023380892E-01  4.629789862923E-01
  22   1     8.990109138468E-01  3.269215883250E-01  5.453219580417E-01
  23   1     9.715271311309E-01  5.461760659146E-01  1.829699623868E-01
  24   1     1.736266927342E-01  6.892194569141E-01  2.282561665950E-01
  25   1     2.333171740220E-01  4.923504544578E-01  8.123223904121E-01
  26   1     1.997137797555E-02  5.525913234627E-01  8.235610586942E-01
  27   1     9.352445687280E-01  8.842907536166E-01  9.189528454158E-01
  28   1     7.794375281007E-01  7.640771326212E-01  7.399570453149E-01
  29   1     5.160333095911E-01  6.420830511454E-01  5.367514656365E-01
  30   1     5.052815429237E-01  8.909365019609E-01  6.059425447894E-01
  31   1     2.576335539134E-01  3.174516253360E-04  6.814668368627E-01
  32   1     4.657687710418E-01  9.372056660477E-02  8.496821363765E-01
  33   1     4.270821838335E-01  7.695646984213E-01  1.056150274913E-01
  34   1     4.621764711102E-01  8.535916350202E-01  3.099982584705E-01
  35   1     8.328515828069E-01  1.923685132106E-01  6.402516916463E-02
  36   1     7.369475932294E-01  2.259248141008E-01  2.163060713804E-01

 *******************************************************************************

 << INFORMATION >>: FROM NOW ON, ALL COORDINATES REFER TO THE PRIMITIVE CELL

 *******************************************************************************

 LATTICE PARAMETERS  (ANGSTROMS AND DEGREES) - PRIMITIVE CELL
       A          B          C        ALPHA      BETA     GAMMA        VOLUME
    6.91601    6.10593    7.84602    94.51220 111.08899  90.30781    307.975551

 COORDINATES OF THE EQUIVALENT ATOMS (FRACTIONAL UNITS)

 N. ATOM EQUIV AT. N.          X                  Y                  Z

   1   1   1    8 O     6.42225300021E-02  1.32686424789E-01  1.89948651914E-02

   2   2   1    8 O     4.29083615080E-01  3.68631902394E-01  4.93402384544E-01

   3   3   1    8 O    -4.76546720125E-01 -3.89380797859E-01 -3.58082998860E-02

   4   4   1    8 O     4.19124511821E-02 -1.30504729447E-01 -4.25634025242E-01

   5   5   1    8 O    -2.07129886838E-01  2.34715089911E-01  4.50371874081E-01

   6   6   1    8 O     9.28860048097E-02 -3.95679539262E-01  2.82563837589E-01

   7   7   1    8 O     9.62916930518E-02  4.30472552277E-01 -2.09110429904E-01

   8   8   1    8 O    -1.40016007058E-01 -2.57227771424E-01 -1.30872316967E-01

   9   9   1    8 O    -4.26713005781E-01 -2.08943597825E-01 -4.57979648244E-01

  10  10   1    8 O     3.98452706061E-01  7.26735247374E-02 -2.82249748526E-01

  11  11   1    8 O     3.63198090890E-01 -1.48560397262E-01  1.83670222314E-01

  12  12   1    8 O    -2.94484552557E-01  2.31288014624E-01  8.42966485928E-02

  13  13   1    1 H     9.12885357863E-02  2.31965219605E-01 -6.34615084807E-02

  14  14   1    1 H     1.93370116828E-01  6.60460177178E-02  9.06923033678E-02

  15  15   1    1 H     2.94053598870E-01  3.98130567824E-01  4.04113443615E-01

  16  16   1    1 H     4.07518040025E-01  2.79610083450E-01 -4.15473887868E-01

  17  17   1    1 H    -3.70276550957E-01 -3.19280057986E-01 -6.99125496145E-02

  18  18   1    1 H    -4.14639350172E-01  4.73053715467E-01  1.12524511717E-02

  19  19   1    1 H     4.67939242413E-02 -2.26138788893E-01  4.70736486148E-01

  20  20   1    1 H    -6.94579320933E-02 -3.01437783260E-02 -4.74380025207E-01

  21  21   1    1 H    -3.39087696232E-01  2.70902338089E-01  4.62978986292E-01

  22  22   1    1 H    -1.00989086153E-01  3.26921588325E-01 -4.54678041958E-01

  23  23   1    1 H    -2.84728688691E-02 -4.53823934085E-01  1.82969962387E-01

  24  24   1    1 H     1.73626692734E-01 -3.10780543086E-01  2.28256166595E-01

  25  25   1    1 H     2.33317174022E-01  4.92350454458E-01 -1.87677609588E-01

  26  26   1    1 H     1.99713779756E-02 -4.47408676537E-01 -1.76438941306E-01

  27  27   1    1 H    -6.47554312720E-02 -1.15709246383E-01 -8.10471545842E-02

  28  28   1    1 H    -2.20562471899E-01 -2.35922867379E-01 -2.60042954685E-01

  29  29   1    1 H    -4.83966690409E-01 -3.57916948855E-01 -4.63248534363E-01

  30  30   1    1 H    -4.94718457076E-01 -1.09063498039E-01 -3.94057455211E-01

  31  31   1    1 H     2.57633553913E-01  3.17451625336E-04 -3.18533163137E-01

  32  32   1    1 H     4.65768771042E-01  9.37205666048E-02 -1.50317863623E-01

  33  33   1    1 H     4.27082183833E-01 -2.30435301579E-01  1.05615027491E-01

  34  34   1    1 H     4.62176471110E-01 -1.46408364980E-01  3.09998258470E-01

  35  35   1    1 H    -1.67148417193E-01  1.92368513211E-01  6.40251691646E-02

  36  36   1    1 H    -2.63052406771E-01  2.25924814101E-01  2.16306071380E-01

 NUMBER OF SYMMETRY OPERATORS         :    1
 *******************************************************************************
 * GEOMETRY EDITING - INPUT COORDINATES ARE GIVEN IN ANGSTROM         
 *******************************************************************************

 GCALCO - MAX INDICES DIRECT LATTICE VECTOR    15    16    13
 NO.OF VECTORS CREATED 6999 STARS 3500 RMAX   151.44616 BOHR

 GEOMETRY FOR WAVE FUNCTION - DIMENSIONALITY OF THE SYSTEM    3
 (NON PERIODIC DIRECTION: LATTICE PARAMETER FORMALLY SET TO 500)
 *******************************************************************************
 LATTICE PARAMETERS (ANGSTROMS AND DEGREES) - BOHR = 0.5291772083 ANGSTROM
 PRIMITIVE CELL - CENTRING CODE 1/0 VOLUME=   307.975551 - DENSITY  1.165 g/cm^3
         A              B              C           ALPHA      BETA       GAMMA 
     6.91601048     6.10593201     7.84602078    94.512202 111.088987  90.307807
 *******************************************************************************
 ATOMS IN THE ASYMMETRIC UNIT   36 - ATOMS IN THE UNIT CELL:   36
     ATOM                 X/A                 Y/B                 Z/C    
 *******************************************************************************
      1 T   8 O     6.422253000214E-02  1.326864247889E-01  1.899486519141E-02
      2 T   8 O     4.290836150803E-01  3.686319023936E-01  4.934023845437E-01
      3 T   8 O    -4.765467201253E-01 -3.893807978594E-01 -3.580829988596E-02
      4 T   8 O     4.191245118206E-02 -1.305047294472E-01 -4.256340252420E-01
      5 T   8 O    -2.071298868382E-01  2.347150899107E-01  4.503718740808E-01
      6 T   8 O     9.288600480966E-02 -3.956795392625E-01  2.825638375891E-01
      7 T   8 O     9.629169305176E-02  4.304725522769E-01 -2.091104299039E-01
      8 T   8 O    -1.400160070584E-01 -2.572277714244E-01 -1.308723169674E-01
      9 T   8 O    -4.267130057807E-01 -2.089435978250E-01 -4.579796482445E-01
     10 T   8 O     3.984527060608E-01  7.267352473737E-02 -2.822497485258E-01
     11 T   8 O     3.631980908904E-01 -1.485603972617E-01  1.836702223136E-01
     12 T   8 O    -2.944845525573E-01  2.312880146237E-01  8.429664859279E-02
     13 T   1 H     9.128853578632E-02  2.319652196052E-01 -6.346150848067E-02
     14 T   1 H     1.933701168279E-01  6.604601771780E-02  9.069230336777E-02
     15 T   1 H     2.940535988696E-01  3.981305678238E-01  4.041134436154E-01
     16 T   1 H     4.075180400249E-01  2.796100834495E-01 -4.154738878679E-01
     17 T   1 H    -3.702765509571E-01 -3.192800579858E-01 -6.991254961449E-02
     18 T   1 H    -4.146393501718E-01  4.730537154669E-01  1.125245117168E-02
     19 T   1 H     4.679392424131E-02 -2.261387888931E-01  4.707364861485E-01
     20 T   1 H    -6.945793209328E-02 -3.014377832599E-02 -4.743800252065E-01
     21 T   1 H    -3.390876962322E-01  2.709023380892E-01  4.629789862923E-01
     22 T   1 H    -1.009890861532E-01  3.269215883250E-01 -4.546780419583E-01
     23 T   1 H    -2.847286886906E-02 -4.538239340854E-01  1.829699623868E-01
     24 T   1 H     1.736266927342E-01 -3.107805430859E-01  2.282561665950E-01
     25 T   1 H     2.333171740220E-01  4.923504544578E-01 -1.876776095879E-01
     26 T   1 H     1.997137797555E-02 -4.474086765373E-01 -1.764389413058E-01
     27 T   1 H    -6.475543127198E-02 -1.157092463834E-01 -8.104715458424E-02
     28 T   1 H    -2.205624718993E-01 -2.359228673788E-01 -2.600429546851E-01
     29 T   1 H    -4.839666904089E-01 -3.579169488546E-01 -4.632485343635E-01
     30 T   1 H    -4.947184570763E-01 -1.090634980391E-01 -3.940574552106E-01
     31 T   1 H     2.576335539134E-01  3.174516253360E-04 -3.185331631373E-01
     32 T   1 H     4.657687710418E-01  9.372056660477E-02 -1.503178636235E-01
     33 T   1 H     4.270821838335E-01 -2.304353015787E-01  1.056150274913E-01
     34 T   1 H     4.621764711102E-01 -1.464083649798E-01  3.099982584705E-01
     35 T   1 H    -1.671484171931E-01  1.923685132106E-01  6.402516916463E-02
     36 T   1 H    -2.630524067706E-01  2.259248141008E-01  2.163060713804E-01

 T = ATOM BELONGING TO THE ASYMMETRIC UNIT

 ****    1 SYMMOPS - TRANSLATORS IN FRACTIONAL UNITS
 **** MATRICES AND TRANSLATORS IN THE CRYSTALLOGRAPHIC REFERENCE FRAME
   V INV                    ROTATION MATRICES                   TRANSLATORS
   1   1  1.00 -0.00  0.00  0.00  1.00  0.00  0.00  0.00  1.00  0.00  0.00  0.00

 DIRECT LATTICE VECTORS CARTESIAN COMPONENTS (ANGSTROM)
          X                    Y                    Z
   0.691591067867E+01  -0.371543282254E-01   0.000000000000E+00
   0.000000000000E+00   0.610593201000E+01   0.000000000000E+00
  -0.282649222068E+01  -0.617257458980E+00   0.729314589433E+01


 CARTESIAN COORDINATES - PRIMITIVE CELL
 *******************************************************************************
 *      ATOM          X(ANGSTROM)         Y(ANGSTROM)         Z(ANGSTROM)
 *******************************************************************************
    1     8 O     3.904684423566E-01  7.960634212301E-01  1.385323230840E-01
    2     8 O     1.572905953997E+00  1.930342717123E+00  3.598455575086E+00
    3     8 O    -3.194542669537E+00 -2.337723964277E+00 -2.611551552961E-01
    4     8 O     1.492914029904E+00 -5.356844570797E-01 -3.104211043680E+00
    5     8 O     1.210278259234E-01  1.780112212906E+00 -4.008518109954E+00
    6     8 O    -1.562731762299E-01 -2.593858117985E+00  2.060779291998E+00
    7     8 O     1.256993751631E+00  2.753933455814E+00 -1.525072873315E+00
    8     8 O    -5.984286125889E-01 -1.484631168896E+00 -9.544709011719E-01
    9     8 O    -1.656633120412E+00 -9.772498132294E-01 -3.340112391280E+00
   10     8 O    -3.362470635382E+00  6.403104491483E-01 -2.058488594636E+00
   11     8 O     1.992703100721E+00 -1.033965880854E+00  1.339533727777E+00
   12     8 O    -2.274892683212E+00  1.371137532632E+00  6.147877565900E-01
   13     1 H     8.107168195184E-01  1.452144184840E+00 -4.628340400236E-01
   14     1 H     1.080989365961E+00  3.401074562007E-01  6.614321999537E-01
   15     1 H     8.914249198714E-01  2.170590776961E+00  2.947258302146E+00
   16     1 H     1.166199856032E+00  1.331335997154E+00  4.263034214823E+00
   17     1 H    -2.363192275212E+00 -1.892590906976E+00 -5.098824241828E-01
   18     1 H    -2.899413675351E+00  2.896893810813E+00  8.206576806385E-02
   19     1 H    -1.006910415733E+00 -1.673092273914E+00  3.433149871264E+00
   20     1 H     8.604665966117E-01  1.113394107737E-01 -3.459722733186E+00
   21     1 H    -8.272145017898E-01  1.998190059626E+00 -3.916572601290E+00
   22     1 H     5.867124491547E-01  2.280566585401E+00 -3.316033294949E+00
   23     1 H    -7.140789931691E-01 -2.882899769773E+00  1.334426629966E+00
   24     1 H     5.556224191790E-01 -2.044948670633E+00  1.664705524257E+00
   25     1 H     2.144070038833E+00 -2.992496948451E+00 -1.368760187823E+00
   26     1 H     6.368235612354E-01 -2.623680730178E+00 -1.286794940384E+00
   27     1 H    -2.187636266949E-01 -6.540798861013E-01 -5.910887227029E-01
   28     1 H    -7.903809662615E-01 -1.271820683909E+00 -1.896531207310E+00
   29     1 H    -2.037702023699E+00 -1.881491484470E+00 -3.378539146446E+00
   30     1 H    -2.307628328575E+00 -4.043184683707E-01 -2.873918511598E+00
   31     1 H     2.682102154331E+00  1.889831072958E-01 -2.323108830942E+00
   32     1 H    -3.269823189070E+00  6.848852325959E-01 -1.096290109930E+00
   33     1 H     2.655142182253E+00 -1.488081899280E+00  7.702658041274E-01
   34     1 H     2.320163525989E+00 -1.102480115879E+00  2.260862526013E+00
   35     1 H    -1.336950165961E+00  1.141279336454E+00  4.669448996266E-01
   36     1 H    -2.430634377078E+00  1.255738553751E+00  1.577551736406E+00

 *******************************************************************************
 STARTING BASIS SET HANDLING 
 *******************************************************************************

 Loading internal basis set: DEF2-MSVP           

 Please cite in your publication:
 Fully Optimized Contracted Gaussian Basis Sets for Atoms Li to Kr. A. Schäfer, 
 H. Horn and R. Ahlrichs; J. Chem. Phys. 97, 2571 (1992).                       
                                                                                
                    
 S. Grimme, J. G. Brandenburg, C. Bannwarth, and A. Hansen, J. Chem. Phys., 143,
  054107 (2015).                                                                
                                                                                
                    

 *******************************************************************************
 LOCAL ATOMIC FUNCTIONS BASIS SET
 *******************************************************************************
   ATOM   X(AU)   Y(AU)   Z(AU)  N. TYPE  EXPONENT  S COEF   P COEF   D/F/G COEF
 *******************************************************************************
   1 O    0.738   1.504   0.262
                                  1 S  
                                         6.773E+03 1.727E-03 0.000E+00 0.000E+00
                                         1.017E+03 1.325E-02 0.000E+00 0.000E+00
                                         2.313E+02 6.603E-02 0.000E+00 0.000E+00
                                         6.501E+01 2.353E-01 0.000E+00 0.000E+00
                                         2.050E+01 5.498E-01 0.000E+00 0.000E+00
                                  2 S  
                                         6.716E+00 1.000E+00 0.000E+00 0.000E+00
                                  3 S  
                                         1.147E+00 1.000E+00 0.000E+00 0.000E+00
                                  4 S  
                                         3.342E-01 1.000E+00 0.000E+00 0.000E+00
                           5-     7 P  
                                         1.769E+01 0.000E+00 4.359E-02 0.000E+00
                                         3.854E+00 0.000E+00 2.318E-01 0.000E+00
                                         1.047E+00 0.000E+00 5.146E-01 0.000E+00
                           8-    10 P  
                                         2.759E-01 0.000E+00 1.000E+00 0.000E+00
                          11-    15 D  
                                         8.000E-01 0.000E+00 0.000E+00 1.000E+00
   2 O    2.972   3.648   6.800
   3 O   -6.037  -4.418  -0.494
   4 O    2.821  -1.012  -5.866
   5 O    0.229   3.364  -7.575
   6 O   -0.295  -4.902   3.894
   7 O    2.375   5.204  -2.882
   8 O   -1.131  -2.806  -1.804
   9 O   -3.131  -1.847  -6.312
  10 O   -6.354   1.210  -3.890
  11 O    3.766  -1.954   2.531
  12 O   -4.299   2.591   1.162
  13 H    1.532   2.744  -0.875
                                181 S  
                                         1.874E+01 1.968E-02 0.000E+00 0.000E+00
                                         2.826E+00 1.380E-01 0.000E+00 0.000E+00
                                         6.401E-01 4.783E-01 0.000E+00 0.000E+00
                                182 S  
                                         1.756E-01 1.000E+00 0.000E+00 0.000E+00
  14 H    2.043   0.643   1.250
  15 H    1.685   4.102   5.570
  16 H    2.204   2.516   8.056
  17 H   -4.466  -3.576  -0.964
  18 H   -5.479   5.474   0.155
  19 H   -1.903  -3.162   6.488
  20 H    1.626   0.210  -6.538
  21 H   -1.563   3.776  -7.401
  22 H    1.109   4.310  -6.266
  23 H   -1.349  -5.448   2.522
  24 H    1.050  -3.864   3.146
  25 H    4.052  -5.655  -2.587
  26 H    1.203  -4.958  -2.432
  27 H   -0.413  -1.236  -1.117
  28 H   -1.494  -2.403  -3.584
  29 H   -3.851  -3.556  -6.385
  30 H   -4.361  -0.764  -5.431
  31 H    5.068   0.357  -4.390
  32 H   -6.179   1.294  -2.072
  33 H    5.017  -2.812   1.456
  34 H    4.384  -2.083   4.272
  35 H   -2.526   2.157   0.882
  36 H   -4.593   2.373   2.981

 *******************************************************************************
 FINISHED BASIS SET HANDLING 
 *******************************************************************************

 INFORMATION **** SET_MPP **** PCRYSTAL CALCULATION
 INFORMATION **** READM2 **** NEW DEFAULT: FOCK/KS MATRIX MIXING SET TO 30 %
 INFORMATION **** READM2 **** NEW DEFAULT: FULL DIRECT SCF MODE
 INFORMATION **** READM2 **** NEW DEFAULT: COULOMB BIPOLAR BUFFER SET TO 32 Mb
 INFORMATION **** READM2 **** NEW DEFAULT: EXCHANGE BIPOLAR BUFFER SET TO 32 Mb

 *******************************************************************************
 NEW DEFAULT: DFT INTEGRATION GRID INCREASED TO XLGRID
 NEW DEFAULT: DIIS ACCELERATOR ACTIVE
 USE KEYWORD NODIIS TO TURN IT OFF
 *******************************************************************************

 INFORMATION **** RDDFTP **** HSE-3c calculation
 INFORMATION **** RDDFTP **** HSE screened hybrid functional combined with D3 and gCP

PLEASE CITE:
(1) HSE-3c Reference
 J. G. Brandenburg, E. Caldeweyer, and S. Grimme, 
 Phys. Chem. Chem. Phys. 18, 15519 (2016)
(2) DFT-D3 Reference
 S. Grimme, J. Antony, S. Ehrlich,
 and H. Krieg, J. Chem. Phys. 132, 154104 (2010)
(3) gCP Reference
 H. Kruse and S. Grimme J. Chem. Phys, 136, 154101 (2012)
 J. G. Brandenburg, M. Alessio, B. Civalleri, M. F. Peintinger
 T. Bredow, and S. Grimme, J. Phys. Chem. A, 117, 9282 (2013) 

 WARNING **** RDDFTP **** HSE3c-HJS ACTIVE
 RANGE SEPARATION - OMEGA:   0.110000000000000     
 WARNING **** RDDFTP **** HSE-3c has to be combined with def2-mSVP basis set
 WARNING **** RDDFTP **** Note: Harmonic frequencies are scaled by 0.95
 WARNING **** RDDFTP **** as recommended in original publication
 INFORMATION **** BIPOSIZE **** COULOMB BIPOLAR BUFFER SET TO    60000000
 INFORMATION **** EXCHSIZE **** EXCHANGE BIPOLAR BUFFER SIZE SET TO    40000000
 *******************************************************************************
 N. OF ATOMS PER CELL        36  COULOMB OVERLAP TOL         (T1) 10**   -6
 NUMBER OF SHELLS           132  COULOMB PENETRATION TOL     (T2) 10**   -6
 NUMBER OF AO               228  EXCHANGE OVERLAP TOL        (T3) 10**   -6
 N. OF ELECTRONS PER CELL   120  EXCHANGE PSEUDO OVP (F(G))  (T4) 10**   -6
 CORE ELECTRONS PER CELL     24  EXCHANGE PSEUDO OVP (P(G))  (T5) 10**  -12
 N. OF SYMMETRY OPERATORS     1  POLE ORDER IN MONO ZONE                  4
 *******************************************************************************
 TYPE OF CALCULATION :  RESTRICTED CLOSED SHELL
 KOHN-SHAM HAMILTONIAN

 (EXCHANGE)[CORRELATION] FUNCTIONAL:(HSE-3c)[PBEh-3c]

 RANGE-SEPARATED HYBRID FUNCTIONAL 
 OMEGA (SHORT-RANGE)[LONG-RANGE]:(    0.1100)[    0.0000]

 HYBRID EXCHANGE - PERCENTAGE OF FOCK EXCHANGE    42.0000

 CAPPA:IS1  2;IS2  2;IS3  2; K PTS MONK NET   8; SYMMOPS:K SPACE   2;G SPACE   1

 *******************************************************************************
 MAX NUMBER OF SCF CYCLES      50  CONVERGENCE ON DELTAP        10**-16
 WEIGHT OF F(I) IN F(I+1)      30% CONVERGENCE ON ENERGY        10**- 6
 S(K) EIGENV. THRESHOLD  10*10.**-4
 SHRINK. FACT.(MONKH.)    2  2  2  NUMBER OF K POINTS IN THE IBZ      8
 SHRINKING FACTOR(GILAT NET)    2  NUMBER OF K POINTS(GILAT NET)      8
 *******************************************************************************
 *** K POINTS COORDINATES (OBLIQUE COORDINATES IN UNITS OF IS =  2)
   1-R(  0  0  0)   2-R(  1  0  0)   3-R(  0  1  0)   4-R(  1  1  0)
   5-R(  0  0  1)   6-R(  1  0  1)   7-R(  0  1  1)   8-R(  1  1  1)

 DIRECT LATTICE VECTORS COMPON. (A.U.)     RECIP. LATTICE VECTORS COMPON. (A.U.) 
        X            Y            Z              X            Y            Z
   13.0691771   -0.0702115    0.0000000      0.4807636    0.0000000    0.1863222
    0.0000000   11.5385393    0.0000000      0.0029254    0.5445391    0.0472210
   -5.3412962   -1.1664476   13.7820484      0.0000000    0.0000000    0.4558963

 DISK SPACE FOR EIGENVECTORS (FTN 10)      415872 REALS

 SYMMETRY ADAPTION OF THE BLOCH FUNCTIONS DISABLED
 TTTTTTTTTTTTTTTTTTTTTTTTTTTTTT gordsh1     TELAPSE        0.10 TCPU        0.04

 MATRIX SIZE: P(G)  136820, F(G)   23855, P(G) IRR   69088, F(G) IRR   24047
 MAX G-VECTOR INDEX FOR 1- AND 2-ELECTRON INTEGRALS  71

 TTTTTTTTTTTTTTTTTTTTTTTTTTTTTT INPUT       TELAPSE        0.11 TCPU        0.06

 NEIGHBORS OF THE NON-EQUIVALENT ATOMS

 N = NUMBER OF NEIGHBORS AT DISTANCE R
    ATOM  N     R/ANG      R/AU   NEIGHBORS (ATOM LABELS AND CELL INDICES)
   1 O    1     0.9788     1.8498   14 H    0 0 0
   1 O    1     0.9842     1.8599   13 H    0 0 0
   1 O    1     1.7339     3.2766   27 H    0 0 0
   1 O    1     1.7919     3.3863   35 H    0 0 0
   1 O    1     2.7114     5.1238    7 O    0 0 0
   1 O    1     2.7127     5.1262   11 O    0 0 0

   2 O    1     0.9727     1.8382   15 H    0 0 0
   2 O    1     0.9828     1.8572   16 H    0 0 0
   2 O    1     1.7372     3.2828   29 H    1 1 1
   2 O    1     1.8019     3.4052   21 H    1 0 1
   2 O    1     2.6784     5.0614   10 O    1 0 1
   2 O    1     2.7086     5.1186    9 O    1 1 1

   3 O    1     0.9753     1.8430   17 H    0 0 0
   3 O    1     0.9819     1.8555   18 H    0-1 0
   3 O    1     1.7283     3.2660   33 H   -1 0 0
   3 O    1     2.0239     3.8246   25 H   -1 0 0
   3 O    1     2.7108     5.1227   11 O   -1 0 0
   3 O    1     2.7127     5.1263   12 O    0-1 0

   4 O    1     0.9721     1.8370   20 H    0 0 0
   4 O    1     0.9739     1.8404   19 H    0 0-1
   4 O    1     1.5967     3.0173   31 H    0 0 0
   4 O    1     2.5761     4.8681   10 O    1 0 0
   4 O    1     2.6859     5.0755   28 H    0 0 0
   4 O    1     2.8269     5.3421    6 O    0 0-1

   5 O    1     0.9731     1.8388   22 H    0 0 0
   5 O    1     0.9773     1.8469   21 H    0 0 0
   5 O    1     1.7316     3.2722   36 H    0 0-1
   5 O    1     1.9060     3.6018   20 H    0 0 0
   5 O    1     2.7123     5.1256   12 O    0 0-1
   5 O    1     2.7753     5.2446    2 O   -1 0-1

   6 O    1     0.9604     1.8148   23 H    0 0 0
   6 O    1     0.9823     1.8563   24 H    0 0 0
   6 O    1     1.8587     3.5124   19 H    0 0 0
   6 O    1     1.9191     3.6266   15 H    0-1 0
   6 O    1     2.7516     5.1999   11 O    0 0 0
   6 O    1     2.8029     5.2968    2 O    0-1 0

   7 O    1     0.9698     1.8327   25 H    0 1 0
   7 O    1     0.9858     1.8629   26 H    0 1 0
   7 O    1     1.7384     3.2852   13 H    0 0 0
   7 O    1     1.9700     3.7228   22 H    0 0 0
   7 O    1     2.6936     5.0901    8 O    0 1 0
   7 O    1     2.7114     5.1238    1 O    0 0 0

   8 O    1     0.9829     1.8573   27 H    0 0 0
   8 O    1     0.9847     1.8608   28 H    0 0 0
   8 O    1     1.7128     3.2367   26 H    0 0 0
   8 O    1     1.8651     3.5245   17 H    0 0 0
   8 O    1     2.6587     5.0242    9 O    0 0 0
   8 O    1     2.6847     5.0733   23 H    0 0 0

   9 O    1     0.9820     1.8557   29 H    0 0 0
   9 O    1     0.9846     1.8606   30 H    0 0 0
   9 O    1     1.7091     3.2298   28 H    0 0 0
   9 O    1     1.7766     3.3572   34 H   -1 0-1
   9 O    1     2.6587     5.0242    8 O    0 0 0
   9 O    1     2.6775     5.0597   10 O    0 0 0

  10 O    1     0.9677     1.8286   32 H    0 0 0
  10 O    1     1.0004     1.8905   31 H   -1 0 0
  10 O    1     1.6938     3.2008   30 H    0 0 0
  10 O    1     1.7167     3.2442   16 H   -1 0-1
  10 O    1     2.5761     4.8681    4 O   -1 0 0
  10 O    1     2.6775     5.0597    9 O    0 0 0

  11 O    1     0.9802     1.8523   34 H    0 0 0
  11 O    1     0.9844     1.8603   33 H    0 0 0
  11 O    1     1.7830     3.3694   14 H    0 0 0
  11 O    1     1.7869     3.3768   24 H    0 0 0
  11 O    1     2.7108     5.1227    3 O    1 0 0
  11 O    1     2.7127     5.1262    1 O    0 0 0

  12 O    1     0.9769     1.8462   35 H    0 0 0
  12 O    1     0.9821     1.8559   36 H    0 0 0
  12 O    1     1.7326     3.2741   18 H    0 0 0
  12 O    1     2.0949     3.9588   32 H    0 0 0
  12 O    1     2.5266     4.7745   23 H    0 1 0
  12 O    1     2.7123     5.1256    5 O    0 0 1

  13 H    1     0.9842     1.8599    1 O    0 0 0
  13 H    1     1.6043     3.0316   14 H    0 0 0
  13 H    1     1.7384     3.2852    7 O    0 0 0
  13 H    1     2.1978     4.1533   26 H    0 1 0
  13 H    1     2.3148     4.3744   25 H    0 1 0
  13 H    1     2.3479     4.4368   27 H    0 0 0

  14 H    1     0.9788     1.8498    1 O    0 0 0
  14 H    1     1.6043     3.0316   13 H    0 0 0
  14 H    1     1.7830     3.3694   11 O    0 0 0
  14 H    1     2.0607     3.8942   27 H    0 0 0
  14 H    1     2.4150     4.5636   33 H    0 0 0
  14 H    1     2.4849     4.6958   34 H    0 0 0

  15 H    1     0.9727     1.8382    2 O    0 0 0
  15 H    1     1.5847     2.9946   16 H    0 0 0
  15 H    1     1.9191     3.6266    6 O    0 1 0
  15 H    1     2.0592     3.8914   29 H    1 1 1
  15 H    1     2.3090     4.3633   24 H    0 1 0
  15 H    1     2.5073     4.7381   23 H    0 1 0

  16 H    1     0.9828     1.8572    2 O    0 0 0
  16 H    1     1.5847     2.9946   15 H    0 0 0
  16 H    1     1.7167     3.2442   10 O    1 0 1
  16 H    1     2.2758     4.3006   21 H    1 0 1
  16 H    1     2.3052     4.3561   31 H    0 0 1
  16 H    1     2.3563     4.4527   32 H    1 0 1

  17 H    1     0.9753     1.8430    3 O    0 0 0
  17 H    1     1.5398     2.9098   18 H    0-1 0
  17 H    1     1.8651     3.5245    8 O    0 0 0
  17 H    1     2.1868     4.1324   28 H    0 0 0
  17 H    1     2.3312     4.4054   33 H   -1 0 0
  17 H    1     2.4777     4.6822   27 H    0 0 0

  18 H    1     0.9819     1.8555    3 O    0 1 0
  18 H    1     1.5398     2.9098   17 H    0 1 0
  18 H    1     1.7326     3.2741   12 O    0 0 0
  18 H    1     2.2693     4.2883   36 H    0 0 0
  18 H    1     2.3276     4.3986   33 H   -1 1 0
  18 H    1     2.3815     4.5004   35 H    0 0 0

  19 H    1     0.9739     1.8404    4 O    0 0 1
  19 H    1     1.5628     2.9533   20 H    0 0 1
  19 H    1     1.8587     3.5124    6 O    0 0 0
  19 H    1     2.1577     4.0774   31 H    0 0 1
  19 H    1     2.3890     4.5145   24 H    0 0 0
  19 H    1     2.4401     4.6111   23 H    0 0 0

  20 H    1     0.9721     1.8370    4 O    0 0 0
  20 H    1     1.5628     2.9533   19 H    0 0-1
  20 H    1     1.9060     3.6018    5 O    0 0 0
  20 H    1     2.1486     4.0602   31 H    0 0 0
  20 H    1     2.1911     4.1407   22 H    0 0 0
  20 H    1     2.5724     4.8611   21 H    0 0 0

  21 H    1     0.9773     1.8469    5 O    0 0 0
  21 H    1     1.5619     2.9516   22 H    0 0 0
  21 H    1     1.8019     3.4052    2 O   -1 0-1
  21 H    1     2.1790     4.1177   36 H    0 0-1
  21 H    1     2.2758     4.3006   16 H   -1 0-1
  21 H    1     2.5473     4.8136   15 H   -1 0-1

  22 H    1     0.9731     1.8388    5 O    0 0 0
  22 H    1     1.5619     2.9516   21 H    0 0 0
  22 H    1     1.9700     3.7228    7 O    0 0 0
  22 H    1     2.1911     4.1407   20 H    0 0 0
  22 H    1     2.3589     4.4577   26 H    0 1 0
  22 H    1     2.4414     4.6136   36 H    0 0-1

  23 H    1     0.9604     1.8148    6 O    0 0 0
  23 H    1     1.5567     2.9418   24 H    0 0 0
  23 H    1     2.3397     4.4214   35 H    0-1 0
  23 H    1     2.4401     4.6111   19 H    0 0 0
  23 H    1     2.5073     4.7381   15 H    0-1 0
  23 H    1     2.5266     4.7745   12 O    0-1 0

  24 H    1     0.9823     1.8563    6 O    0 0 0
  24 H    1     1.5567     2.9418   23 H    0 0 0
  24 H    1     1.7869     3.3768   11 O    0 0 0
  24 H    1     2.0874     3.9446   34 H    0 0 0
  24 H    1     2.3090     4.3633   15 H    0-1 0
  24 H    1     2.3491     4.4391   33 H    0 0 0

  25 H    1     0.9698     1.8327    7 O    0-1 0
  25 H    1     1.5539     2.9364   26 H    0 0 0
  25 H    1     2.0239     3.8246    3 O    1 0 0
  25 H    1     2.3148     4.3744   13 H    0-1 0
  25 H    1     2.3823     4.5018   18 H    1-1 0
  25 H    1     2.6289     4.9678   22 H    0-1 0

  26 H    1     0.9858     1.8629    7 O    0-1 0
  26 H    1     1.5539     2.9364   25 H    0 0 0
  26 H    1     1.7128     3.2367    8 O    0 0 0
  26 H    1     2.0582     3.8894   28 H    0 0 0
  26 H    1     2.1978     4.1533   13 H    0-1 0
  26 H    1     2.2573     4.2657   27 H    0 0 0

  27 H    1     0.9829     1.8573    8 O    0 0 0
  27 H    1     1.5532     2.9352   28 H    0 0 0
  27 H    1     1.7339     3.2766    1 O    0 0 0
  27 H    1     2.0607     3.8942   14 H    0 0 0
  27 H    1     2.2573     4.2657   26 H    0 0 0
  27 H    1     2.3479     4.4368   13 H    0 0 0

  28 H    1     0.9847     1.8608    8 O    0 0 0
  28 H    1     1.5532     2.9352   27 H    0 0 0
  28 H    1     1.7091     3.2298    9 O    0 0 0
  28 H    1     2.0025     3.7841   30 H    0 0 0
  28 H    1     2.0307     3.8375   29 H    0 0 0
  28 H    1     2.0582     3.8894   26 H    0 0 0

  29 H    1     0.9820     1.8557    9 O    0 0 0
  29 H    1     1.5842     2.9936   30 H    0 0 0
  29 H    1     1.7372     3.2828    2 O   -1-1-1
  29 H    1     2.0307     3.8375   28 H    0 0 0
  29 H    1     2.0592     3.8914   15 H   -1-1-1
  29 H    1     2.2049     4.1667   34 H   -1 0-1

  30 H    1     0.9846     1.8606    9 O    0 0 0
  30 H    1     1.5842     2.9936   29 H    0 0 0
  30 H    1     1.6938     3.2008   10 O    0 0 0
  30 H    1     2.0025     3.7841   28 H    0 0 0
  30 H    1     2.1002     3.9689   31 H   -1 0 0
  30 H    1     2.2249     4.2045   34 H   -1 0-1

  31 H    1     1.0004     1.8905   10 O    1 0 0
  31 H    1     1.5967     3.0173    4 O    0 0 0
  31 H    1     1.6263     3.0732   32 H    1 0 0
  31 H    1     2.1002     3.9689   30 H    1 0 0
  31 H    1     2.1486     4.0602   20 H    0 0 0
  31 H    1     2.1577     4.0774   19 H    0 0-1

  32 H    1     0.9677     1.8286   10 O    0 0 0
  32 H    1     1.6263     3.0732   31 H   -1 0 0
  32 H    1     2.0949     3.9588   12 O    0 0 0
  32 H    1     2.2961     4.3390   30 H    0 0 0
  32 H    1     2.3563     4.4527   16 H   -1 0-1
  32 H    1     2.5274     4.7762   35 H    0 0 0

  33 H    1     0.9844     1.8603   11 O    0 0 0
  33 H    1     1.5757     2.9776   34 H    0 0 0
  33 H    1     1.7283     3.2660    3 O    1 0 0
  33 H    1     2.3276     4.3986   18 H    1-1 0
  33 H    1     2.3312     4.4054   17 H    1 0 0
  33 H    1     2.3491     4.4391   24 H    0 0 0

  34 H    1     0.9802     1.8523   11 O    0 0 0
  34 H    1     1.5757     2.9776   33 H    0 0 0
  34 H    1     1.7766     3.3572    9 O    1 0 1
  34 H    1     2.0874     3.9446   24 H    0 0 0
  34 H    1     2.2049     4.1667   29 H    1 0 1
  34 H    1     2.2249     4.2045   30 H    1 0 1

  35 H    1     0.9769     1.8462   12 O    0 0 0
  35 H    1     1.5629     2.9535   36 H    0 0 0
  35 H    1     1.7919     3.3863    1 O    0 0 0
  35 H    1     2.3397     4.4214   23 H    0 1 0
  35 H    1     2.3608     4.4614   13 H    0 0 0
  35 H    1     2.3650     4.4691   27 H    0 0 0

  36 H    1     0.9821     1.8559   12 O    0 0 0
  36 H    1     1.5629     2.9535   35 H    0 0 0
  36 H    1     1.7316     3.2722    5 O    0 0 1
  36 H    1     2.1790     4.1177   21 H    0 0 1
  36 H    1     2.2693     4.2883   18 H    0 0 0
  36 H    1     2.4414     4.6136   22 H    0 0 1


 SYMMETRY ALLOWED INTERNAL DEGREE(S) OF FREEDOM: 105
 TTTTTTTTTTTTTTTTTTTTTTTTTTTTTT SYMM        TELAPSE        0.12 TCPU        0.06
 TTTTTTTTTTTTTTTTTTTTTTTTTTTTTT INT_SCREEN  TELAPSE        0.12 TCPU        0.07

 DFT PARAMETERS

     ATOM       ELECTRONS   NET CHARGE   R(ANGSTROM)
   1   8  O       8.0000      0.0000     0.74000000
  13   1  H       1.0000      0.0000     1.11000000

 SIZE OF GRID=     805419
 TTTTTTTTTTTTTTTTTTTTTTTTTTTTTT MAKE_GRID2  TELAPSE       11.94 TCPU       11.89
 BECKE WEIGHT FUNCTION
 RADSAFE =     2.00
 TOLERANCES - DENSITY:10**- 6; POTENTIAL:10**- 9; GRID WGT:10**-14

 RADIAL INTEGRATION  - INTERVALS (POINTS,UPPER LIMIT):            1( 75,  4.0*R)

 ANGULAR INTEGRATION - INTERVALS (ACCURACY LEVEL [N. POINTS] UPPER LIMIT):
  1(  4[  86]   0.2)  2(  8[ 194]   0.5)  3( 12[ 350]   0.9)  4( 16[ 974]   3.5)
  5( 12[ 350]9999.0)
 TTTTTTTTTTTTTTTTTTTTTTTTTTTTTT INT_CALC    TELAPSE       11.97 TCPU       11.92
 EEEEEEEEEE INT_CALC TERMINATION  DATE 25 03 2019 TIME 17:46:12.8

 *******************************************************************************
 !drive by JGB                                                                   
 CRYSTAL - SCF - TYPE OF CALCULATION :  RESTRICTED CLOSED SHELL
 *******************************************************************************

 CAPPA:IS1  2;IS2  2;IS3  2; K PTS MONK NET   8; SYMMOPS:K SPACE   2;G SPACE   1

 TTTTTTTTTTTTTTTTTTTTTTTTTTTTTT SDIK        TELAPSE       12.35 TCPU       12.22

 AAAAAAAAAAAAAAAAAAAAAAAAAAAAAAAAAAAAAAAAAAAAAAAAAAAAAAAAAAAAAAAAAAAAAAAAAAAAAAA
         ATOMIC WAVEFUNCTION(S)


 NUCLEAR CHARGE  8.0  SYMMETRY SPECIES            S    P
 N. ELECTRONS    8.0  NUMBER OF PRIMITIVE GTOS    8    4
                      NUMBER OF CONTRACTED GTOS   4    2
                      NUMBER OF CLOSED SHELLS     2    0
                      OPEN SHELL OCCUPATION       0    4

  ZNUC SCFIT  TOTAL HF ENERGY   KINETIC ENERGY   VIRIAL THEOREM ACCURACY
   8.0  12   -7.477373220E+01  7.477365593E+01 -2.000001020E+00  3.8E-06

 NUCLEAR CHARGE  1.0  SYMMETRY SPECIES            S
 N. ELECTRONS    1.0  NUMBER OF PRIMITIVE GTOS    4
                      NUMBER OF CONTRACTED GTOS   2
                      NUMBER OF CLOSED SHELLS     0
                      OPEN SHELL OCCUPATION       1

  ZNUC SCFIT  TOTAL HF ENERGY   KINETIC ENERGY   VIRIAL THEOREM ACCURACY
   1.0   1   -4.977266687E-01  5.190767460E-01 -1.958869132E+00  1.8E-16

 AAAAAAAAAAAAAAAAAAAAAAAAAAAAAAAAAAAAAAAAAAAAAAAAAAAAAAAAAAAAAAAAAAAAAAAAAAAAAAA

 CHARGE NORMALIZATION FACTOR   1.00000000
 TOTAL ATOMIC CHARGES:
   8.0000000   8.0000000   8.0000000   8.0000000   8.0000000   8.0000000
   8.0000000   8.0000000   8.0000000   8.0000000   8.0000000   8.0000000
   1.0000000   1.0000000   1.0000000   1.0000000   1.0000000   1.0000000
   1.0000000   1.0000000   1.0000000   1.0000000   1.0000000   1.0000000
   1.0000000   1.0000000   1.0000000   1.0000000   1.0000000   1.0000000
   1.0000000   1.0000000   1.0000000   1.0000000   1.0000000   1.0000000
 TTTTTTTTTTTTTTTTTTTTTTTTTTTTTT MOQGAD      TELAPSE       12.40 TCPU       12.27
 TTTTTTTTTTTTTTTTTTTTTTTTTTTTTT SHELLXN     TELAPSE       35.51 TCPU       35.36
 TTTTTTTTTTTTTTTTTTTTTTTTTTTTTT MONMO3      TELAPSE       38.99 TCPU       38.85
 NUMERICALLY INTEGRATED DENSITY    119.9999977914
 TTTTTTTTTTTTTTTTTTTTTTTTTTTTTT NUMDFT      TELAPSE       40.35 TCPU       40.20
 CYC   0 ETOT(AU) -9.158083577285E+02 DETOT -9.16E+02 tst  0.00E+00 PX  1.00E+00
 TTTTTTTTTTTTTTTTTTTTTTTTTTTTTT DIIS        TELAPSE       40.36 TCPU       40.21
 TTTTTTTTTTTTTTTTTTTTTTTTTTTTTT FDIK        TELAPSE       40.86 TCPU       40.28
 INSULATING STATE
 TOP OF VALENCE BANDS -    BAND     60; K    2; EIG -4.1274610E-01 AU
 TOP OF VALENCE BANDS -    BAND     60; K    1; EIG -4.1489013E-01 AU
 BOTTOM OF VIRTUAL BANDS - BAND     61; K    1; EIG -8.7090717E-02 AU
 INDIRECT ENERGY BAND GAP:   8.8615 eV
 TTTTTTTTTTTTTTTTTTTTTTTTTTTTTT PDIG        TELAPSE       40.87 TCPU       40.29
 CHARGE NORMALIZATION FACTOR   1.00000000
 TOTAL ATOMIC CHARGES:
   9.0762571   9.0673539   9.0848410   9.0766057   9.0629733   9.0539963
   9.0681396   9.0783257   9.0730547   9.0563068   9.0810963   9.0876262
   0.4631290   0.4564054   0.4631412   0.4585740   0.4667627   0.4646292
   0.4660839   0.4648971   0.4594296   0.4634884   0.4679079   0.4686029
   0.4637786   0.4668325   0.4696532   0.4666736   0.4688313   0.4695451
   0.4595231   0.4581286   0.4626482   0.4623478   0.4604219   0.4619880
 TTTTTTTTTTTTTTTTTTTTTTTTTTTTTT MOQGAD      TELAPSE       40.87 TCPU       40.30
 TTTTTTTTTTTTTTTTTTTTTTTTTTTTTT SHELLXN     TELAPSE       64.77 TCPU       64.19
 TTTTTTTTTTTTTTTTTTTTTTTTTTTTTT MONMO3      TELAPSE       65.40 TCPU       64.82
 NUMERICALLY INTEGRATED DENSITY    119.9999986174
 TTTTTTTTTTTTTTTTTTTTTTTTTTTTTT NUMDFT      TELAPSE       68.22 TCPU       67.64
 CYC   1 ETOT(AU) -9.152076835701E+02 DETOT  6.01E-01 tst  0.00E+00 PX  1.00E+00
 TTTTTTTTTTTTTTTTTTTTTTTTTTTTTT DIIS        TELAPSE       68.29 TCPU       67.71
 DIIS TEST: 0.12898E+01 AT SCF   CYCLE   1 - MIX   30 %
 TTTTTTTTTTTTTTTTTTTTTTTTTTTTTT FDIK        TELAPSE       68.33 TCPU       67.74
 INSULATING STATE
 TOP OF VALENCE BANDS -    BAND     60; K    5; EIG -3.0833466E-01 AU
 TOP OF VALENCE BANDS -    BAND     60; K    1; EIG -3.0901098E-01 AU
 BOTTOM OF VIRTUAL BANDS - BAND     61; K    1; EIG -2.7346974E-02 AU
 INDIRECT ENERGY BAND GAP:   7.6461 eV
 TTTTTTTTTTTTTTTTTTTTTTTTTTTTTT PDIG        TELAPSE       68.33 TCPU       67.75
 CHARGE NORMALIZATION FACTOR   1.00000000
 TOTAL ATOMIC CHARGES:
   8.8683257   8.8501786   8.8558783   8.8424078   8.8447803   8.8148029
   8.8388413   8.8700621   8.8553592   8.8570971   8.8619446   8.8586587
   0.5708865   0.5630284   0.5764605   0.5581562   0.5888607   0.5779084
   0.5848271   0.5788548   0.5635747   0.5770705   0.6016283   0.5798828
   0.5820836   0.5711073   0.5753414   0.5668487   0.5793542   0.5763351
   0.5542701   0.5728750   0.5706106   0.5691760   0.5735043   0.5690183
 TTTTTTTTTTTTTTTTTTTTTTTTTTTTTT MOQGAD      TELAPSE       68.34 TCPU       67.75
 TTTTTTTTTTTTTTTTTTTTTTTTTTTTTT SHELLXN     TELAPSE       92.38 TCPU       91.76
 TTTTTTTTTTTTTTTTTTTTTTTTTTTTTT MONMO3      TELAPSE       92.95 TCPU       92.34
 NUMERICALLY INTEGRATED DENSITY    119.9999953906
 TTTTTTTTTTTTTTTTTTTTTTTTTTTTTT NUMDFT      TELAPSE       95.79 TCPU       95.17
 CYC   2 ETOT(AU) -9.154695267074E+02 DETOT -2.62E-01 tst  1.58E-03 PX  1.33E-01
 TTTTTTTTTTTTTTTTTTTTTTTTTTTTTT DIIS        TELAPSE       95.83 TCPU       95.21
 DIIS TEST: 0.28178E+00 AT SCF   CYCLE   2 - DIIS ACTIVE - HISTORY:     2 CYCLES
 TTTTTTTTTTTTTTTTTTTTTTTTTTTTTT FDIK        TELAPSE       95.88 TCPU       95.24
 INSULATING STATE
 TOP OF VALENCE BANDS -    BAND     60; K    5; EIG -3.5584486E-01 AU
 TOP OF VALENCE BANDS -    BAND     60; K    1; EIG -3.5642836E-01 AU
 BOTTOM OF VIRTUAL BANDS - BAND     61; K    1; EIG -2.9878834E-02 AU
 INDIRECT ENERGY BAND GAP:   8.8700 eV
 TTTTTTTTTTTTTTTTTTTTTTTTTTTTTT PDIG        TELAPSE       95.89 TCPU       95.25
 CHARGE NORMALIZATION FACTOR   1.00000000
 TOTAL ATOMIC CHARGES:
   8.9373561   8.9255040   8.9322317   8.9178952   8.9183247   8.8948533
   8.9202558   8.9415385   8.9287874   8.9239433   8.9374594   8.9405327
   0.5344738   0.5285115   0.5388648   0.5230828   0.5485031   0.5390191
   0.5455639   0.5386847   0.5287032   0.5399838   0.5639299   0.5398431
   0.5433676   0.5312204   0.5382284   0.5282487   0.5425052   0.5407241
   0.5190416   0.5398058   0.5320255   0.5321717   0.5347959   0.5300195
 TTTTTTTTTTTTTTTTTTTTTTTTTTTTTT MOQGAD      TELAPSE       95.89 TCPU       95.25
 TTTTTTTTTTTTTTTTTTTTTTTTTTTTTT SHELLXN     TELAPSE      119.89 TCPU      119.23
 TTTTTTTTTTTTTTTTTTTTTTTTTTTTTT MONMO3      TELAPSE      120.57 TCPU      119.91
 NUMERICALLY INTEGRATED DENSITY    119.9999965589
 TTTTTTTTTTTTTTTTTTTTTTTTTTTTTT NUMDFT      TELAPSE      123.39 TCPU      122.72
 CYC   3 ETOT(AU) -9.155438184472E+02 DETOT -7.43E-02 tst  2.24E-04 PX  4.96E-02
 TTTTTTTTTTTTTTTTTTTTTTTTTTTTTT DIIS        TELAPSE      123.40 TCPU      122.74
 DIIS TEST: 0.14859E-02 AT SCF   CYCLE   3 - DIIS ACTIVE - HISTORY:     3 CYCLES
 TTTTTTTTTTTTTTTTTTTTTTTTTTTTTT FDIK        TELAPSE      123.45 TCPU      122.76
 INSULATING STATE
 TOP OF VALENCE BANDS -    BAND     60; K    2; EIG -3.5404208E-01 AU
 TOP OF VALENCE BANDS -    BAND     60; K    1; EIG -3.5485767E-01 AU
 BOTTOM OF VIRTUAL BANDS - BAND     61; K    1; EIG -2.7186360E-02 AU
 INDIRECT ENERGY BAND GAP:   8.8942 eV
 TTTTTTTTTTTTTTTTTTTTTTTTTTTTTT PDIG        TELAPSE      123.46 TCPU      122.77
 CHARGE NORMALIZATION FACTOR   1.00000000
 TOTAL ATOMIC CHARGES:
   8.9387119   8.9219170   8.9291527   8.9136413   8.9151758   8.8863359
   8.9124141   8.9429407   8.9283717   8.9257990   8.9352209   8.9326995
   0.5349278   0.5287868   0.5410071   0.5244654   0.5493959   0.5406477
   0.5477789   0.5412007   0.5305715   0.5423385   0.5673996   0.5426464
   0.5463215   0.5335580   0.5379720   0.5287968   0.5428548   0.5406503
   0.5192308   0.5401535   0.5332459   0.5334389   0.5373491   0.5328816
 TTTTTTTTTTTTTTTTTTTTTTTTTTTTTT MOQGAD      TELAPSE      123.46 TCPU      122.78
 TTTTTTTTTTTTTTTTTTTTTTTTTTTTTT SHELLXN     TELAPSE      147.53 TCPU      146.84
 TTTTTTTTTTTTTTTTTTTTTTTTTTTTTT MONMO3      TELAPSE      148.22 TCPU      147.53
 NUMERICALLY INTEGRATED DENSITY    119.9999965669
 TTTTTTTTTTTTTTTTTTTTTTTTTTTTTT NUMDFT      TELAPSE      151.06 TCPU      150.36
 CYC   4 ETOT(AU) -9.155440447522E+02 DETOT -2.26E-04 tst  8.88E-07 PX  3.71E-03
 TTTTTTTTTTTTTTTTTTTTTTTTTTTTTT DIIS        TELAPSE      151.07 TCPU      150.38
 DIIS TEST: 0.19332E-03 AT SCF   CYCLE   4 - DIIS ACTIVE - HISTORY:     4 CYCLES
 TTTTTTTTTTTTTTTTTTTTTTTTTTTTTT FDIK        TELAPSE      151.12 TCPU      150.40
 INSULATING STATE
 TOP OF VALENCE BANDS -    BAND     60; K    2; EIG -3.5384864E-01 AU
 TOP OF VALENCE BANDS -    BAND     60; K    1; EIG -3.5449603E-01 AU
 BOTTOM OF VIRTUAL BANDS - BAND     61; K    1; EIG -2.6950090E-02 AU
 INDIRECT ENERGY BAND GAP:   8.8954 eV
 TTTTTTTTTTTTTTTTTTTTTTTTTTTTTT PDIG        TELAPSE      151.12 TCPU      150.41
 CHARGE NORMALIZATION FACTOR   1.00000000
 TOTAL ATOMIC CHARGES:
   8.9345578   8.9223895   8.9290528   8.9147162   8.9146670   8.8908567
   8.9169571   8.9389700   8.9266477   8.9212487   8.9344669   8.9369155
   0.5357506   0.5300219   0.5407280   0.5246022   0.5497497   0.5403417
   0.5471941   0.5407200   0.5304474   0.5421204   0.5658262   0.5413314
   0.5450939   0.5326874   0.5394650   0.5299958   0.5436773   0.5417185
   0.5202967   0.5414348   0.5334792   0.5338018   0.5363349   0.5317354
 TTTTTTTTTTTTTTTTTTTTTTTTTTTTTT MOQGAD      TELAPSE      151.13 TCPU      150.41
 TTTTTTTTTTTTTTTTTTTTTTTTTTTTTT SHELLXN     TELAPSE      175.46 TCPU      174.74
 TTTTTTTTTTTTTTTTTTTTTTTTTTTTTT MONMO3      TELAPSE      176.13 TCPU      175.41
 NUMERICALLY INTEGRATED DENSITY    119.9999965358
 TTTTTTTTTTTTTTTTTTTTTTTTTTTTTT NUMDFT      TELAPSE      179.05 TCPU      178.33
 CYC   5 ETOT(AU) -9.155440609768E+02 DETOT -1.62E-05 tst  1.96E-07 PX  2.29E-03
 TTTTTTTTTTTTTTTTTTTTTTTTTTTTTT DIIS        TELAPSE      179.07 TCPU      178.35
 DIIS TEST: 0.11287E-03 AT SCF   CYCLE   5 - DIIS ACTIVE - HISTORY:     5 CYCLES
 TTTTTTTTTTTTTTTTTTTTTTTTTTTTTT FDIK        TELAPSE      179.12 TCPU      178.38
 INSULATING STATE
 TOP OF VALENCE BANDS -    BAND     60; K    2; EIG -3.5387774E-01 AU
 TOP OF VALENCE BANDS -    BAND     60; K    1; EIG -3.5458983E-01 AU
 BOTTOM OF VIRTUAL BANDS - BAND     61; K    1; EIG -2.6907516E-02 AU
 INDIRECT ENERGY BAND GAP:   8.8973 eV
 TTTTTTTTTTTTTTTTTTTTTTTTTTTTTT PDIG        TELAPSE      179.13 TCPU      178.38
 CHARGE NORMALIZATION FACTOR   1.00000000
 TOTAL ATOMIC CHARGES:
   8.9366945   8.9220639   8.9291651   8.9141910   8.9151467   8.8886769
   8.9145173   8.9409899   8.9272241   8.9235169   8.9348471   8.9347677
   0.5353599   0.5293696   0.5409248   0.5244939   0.5495960   0.5404867
   0.5475080   0.5408621   0.5303982   0.5421679   0.5667230   0.5419766
   0.5457681   0.5331402   0.5387075   0.5293242   0.5434236   0.5413090
   0.5197743   0.5408248   0.5333531   0.5335667   0.5368523   0.5322887
 TTTTTTTTTTTTTTTTTTTTTTTTTTTTTT MOQGAD      TELAPSE      179.13 TCPU      178.39
 TTTTTTTTTTTTTTTTTTTTTTTTTTTTTT SHELLXN     TELAPSE      203.49 TCPU      202.73
 TTTTTTTTTTTTTTTTTTTTTTTTTTTTTT MONMO3      TELAPSE      204.22 TCPU      203.46
 NUMERICALLY INTEGRATED DENSITY    119.9999965510
 TTTTTTTTTTTTTTTTTTTTTTTTTTTTTT NUMDFT      TELAPSE      207.20 TCPU      206.44
 CYC   6 ETOT(AU) -9.155440828394E+02 DETOT -2.19E-05 tst  6.05E-08 PX  1.05E-03
 TTTTTTTTTTTTTTTTTTTTTTTTTTTTTT DIIS        TELAPSE      207.22 TCPU      206.46
 DIIS TEST: 0.50587E-05 AT SCF   CYCLE   6 - DIIS ACTIVE - HISTORY:     6 CYCLES
 TTTTTTTTTTTTTTTTTTTTTTTTTTTTTT FDIK        TELAPSE      207.25 TCPU      206.49
 INSULATING STATE
 TOP OF VALENCE BANDS -    BAND     60; K    2; EIG -3.5388184E-01 AU
 TOP OF VALENCE BANDS -    BAND     60; K    1; EIG -3.5459032E-01 AU
 BOTTOM OF VIRTUAL BANDS - BAND     61; K    1; EIG -2.6891644E-02 AU
 INDIRECT ENERGY BAND GAP:   8.8979 eV
 TTTTTTTTTTTTTTTTTTTTTTTTTTTTTT PDIG        TELAPSE      207.26 TCPU      206.50
 CHARGE NORMALIZATION FACTOR   1.00000000
 TOTAL ATOMIC CHARGES:
   8.9364033   8.9221174   8.9290198   8.9142227   8.9147883   8.8886549
   8.9148752   8.9407559   8.9274605   8.9232648   8.9347826   8.9349957
   0.5354060   0.5294612   0.5409090   0.5245206   0.5496398   0.5405102
   0.5475003   0.5409098   0.5305170   0.5422621   0.5667207   0.5419781
   0.5456769   0.5330677   0.5387985   0.5293979   0.5433530   0.5412622
   0.5198172   0.5409057   0.5333919   0.5335841   0.5368118   0.5322575
 TTTTTTTTTTTTTTTTTTTTTTTTTTTTTT MOQGAD      TELAPSE      207.27 TCPU      206.50
 TTTTTTTTTTTTTTTTTTTTTTTTTTTTTT SHELLXN     TELAPSE      231.62 TCPU      230.83
 TTTTTTTTTTTTTTTTTTTTTTTTTTTTTT MONMO3      TELAPSE      232.34 TCPU      231.55
 NUMERICALLY INTEGRATED DENSITY    119.9999965497
 TTTTTTTTTTTTTTTTTTTTTTTTTTTTTT NUMDFT      TELAPSE      235.23 TCPU      234.45
 CYC   7 ETOT(AU) -9.155440832389E+02 DETOT -4.00E-07 tst  1.19E-09 PX  1.84E-04
 TTTTTTTTTTTTTTTTTTTTTTTTTTTTTT DIIS        TELAPSE      235.25 TCPU      234.47
 DIIS TEST: 0.33419E-06 AT SCF   CYCLE   7 - DIIS ACTIVE - HISTORY:     7 CYCLES
 TTTTTTTTTTTTTTTTTTTTTTTTTTTTTT FDIK        TELAPSE      235.28 TCPU      234.49
 INSULATING STATE
 TOP OF VALENCE BANDS -    BAND     60; K    2; EIG -3.5385559E-01 AU
 TOP OF VALENCE BANDS -    BAND     60; K    1; EIG -3.5456109E-01 AU
 BOTTOM OF VIRTUAL BANDS - BAND     61; K    1; EIG -2.6891680E-02 AU
 INDIRECT ENERGY BAND GAP:   8.8971 eV
 TTTTTTTTTTTTTTTTTTTTTTTTTTTTTT PDIG        TELAPSE      235.29 TCPU      234.50
 CHARGE NORMALIZATION FACTOR   1.00000000
 TOTAL ATOMIC CHARGES:
   8.9364936   8.9220328   8.9291411   8.9141825   8.9151067   8.8888515
   8.9146406   8.9407754   8.9270855   8.9233085   8.9347737   8.9348797
   0.5354037   0.5294431   0.5409279   0.5245367   0.5496112   0.5404824
   0.5474973   0.5408877   0.5304205   0.5421777   0.5666571   0.5419242
   0.5457455   0.5331299   0.5387962   0.5294186   0.5434770   0.5413702
   0.5198223   0.5409031   0.5333871   0.5336112   0.5368357   0.5322620
 TTTTTTTTTTTTTTTTTTTTTTTTTTTTTT MOQGAD      TELAPSE      235.29 TCPU      234.50
 TTTTTTTTTTTTTTTTTTTTTTTTTTTTTT SHELLXN     TELAPSE      259.71 TCPU      258.91
 +++ ENERGIES IN A.U. +++
 ::: EXT EL-POLE                                  -9.5329665971138E+02
 ::: EXT EL-SPHEROPOLE                             1.1526367678664E+01
 ::: BIELET ZONE E-E                               1.1923431706472E+03
 ::: TOTAL E-E                                     2.5057287861450E+02
 ::: TOTAL E-N + N-E                              -1.8282649939550E+03
 ::: TOTAL N-N                                    -1.7895026349357E+02
 ::: KINETIC ENERGY                                9.0974742715141E+02
 ::: PSEUDO TOTAL   ENERGY                        -8.4689495168269E+02
 ::: VIRIAL COEFFICIENT                            1.0357798924961E+00
 TTTTTTTTTTTTTTTTTTTTTTTTTTTTTT MONMO3      TELAPSE      260.52 TCPU      259.72
 NUMERICALLY INTEGRATED DENSITY    119.9999965496
 TTTTTTTTTTTTTTTTTTTTTTTTTTTTTT NUMDFT      TELAPSE      263.49 TCPU      262.69
 CYC   8 ETOT(AU) -9.155440832803E+02 DETOT -4.14E-08 tst  7.71E-10 PX  1.84E-04

 == SCF ENDED - CONVERGENCE ON ENERGY      E(AU) -9.1554408328030E+02 CYCLES   8


 ENERGY EXPRESSION=HARTREE+FOCK EXCH*0.00000+(HSE-3c     EXCH)*1.00000+PBEh-3c    CORR


 TOTAL ENERGY(DFT)(AU)(  8) -9.1554408328030E+02 DE-4.1E-08 tester 7.7E-10
 TTTTTTTTTTTTTTTTTTTTTTTTTTTTTT EDFT        TELAPSE      263.49 TCPU      262.69
 
 INFORMATION **** DFTD3 ENERGY **** CALCULATE DFTD3 ENERGY

           DFT-D V3(BJ)
 DF                                         hse3c     
 parameters
 s6       :    1.0000
 s8       :    0.0000
 a1       :    0.4411
 a2       :    4.5182
 k1 k3    :   16.0000   -4.0000
 Cutoff   :   50.2022
 CN-Cutoff:   21.1671
 
 Edisp /kcal,au:   -22.9324 -0.03654513

 E6    /kcal :   -24.6464
 E8    /kcal :     0.0000
 E6(ABC) "   :   1.714018
 
 INFORMATION **** DFTD3 ENERGY **** NORMAL TERMINATION OF DFTD3 MODULE

 GCP ENERGY CALCULATION
  level           hse3c               basis:hse3c
  Nbf            228
  Atoms           36

  Parameters: 
  sigma     1.0000
  eta       1.4086
  alpha     0.2908
  beta      1.9526

  dmp_scal      4.0000
  dmp_exp       6.0000
 cutoffs: 
   distance [bohr] 60.0
   noise    [a.u.] 2.2E-16
 SR-damping   T
 ** gCP correction **
  Egcp:        0.1502828414 / (a.u.) ||      94.3039 / (kcal/mol)
 INFORMATION **** GCP **** NORMAL TERMINATION OF GCP MODULE

 *******************************************************************************

 DFT-D3-GCP DISPERSION AND COUNTERPOISE CORRECTION

 D3 DISPERSION ENERGY (AU)      -3.6545131190481E-02
 GCP ENERGY (AU)                 1.5028284136568E-01
 TOTAL ENERGY + DISP + GCP (AU) -9.1543034557012E+02

 *******************************************************************************

 EIGENVECTORS IN FORTRAN UNIT  8
 TTTTTTTTTTTTTTTTTTTTTTTTTTTTTT END         TELAPSE      264.64 TCPU      263.81
 EEEEEEEEEE TERMINATION  DATE 25 03 2019 TIME 17:50:25.5
NODE    0 CPU TIME =       263.805
NODE    1 CPU TIME =       264.006
NODE    2 CPU TIME =       264.152
NODE    3 CPU TIME =       258.811
NODE    4 CPU TIME =       264.214
NODE    5 CPU TIME =       264.119
NODE    6 CPU TIME =       264.373
NODE    7 CPU TIME =       264.257
    TOTAL CPU TIME =      2107.736
