 PROCESS            5  OF            8  WORKING
 PROCESS            1  OF            8  WORKING
 PROCESS            4  OF            8  WORKING
 PROCESS            0  OF            8  WORKING
 PROCESS            6  OF            8  WORKING
 PROCESS            3  OF            8  WORKING
 PROCESS            2  OF            8  WORKING
 PROCESS            7  OF            8  WORKING

         
 *******************************************************************************
 *                                                                             *
 *                               CRYSTAL17                                     *
 *                      public : 1.0.1 - Feb 1st, 2017                         *
 *                       HTTP://WWW.CRYSTAL.UNITO.IT                           *
 *                                                                             *
 *                              MAIN AUTHORS                                   *
 *                                                                             *
 *  R. DOVESI(1,11), V.R. SAUNDERS(2), C. ROETTI(1,11), R. ORLANDO(1,11),      *
 *  C.M. ZICOVICH-WILSON(1,3), F. PASCALE(4), B. CIVALLERI(1,11),              *
 *  K. DOLL(5), N.M. HARRISON(2,6), I.J. BUSH(7), Ph. D'ARCO(8),               *
 *  M. LLUNELL(9), M. CAUSA'(10), Y. NOEL(8), L. MASCHIO(1,11), A. ERBA(1,11)  *
 *  M. RE'RAT(14), S. CASASSA(1,11)                                            *
 *                                                                             *
 *        CONTRIBUTIONS TO THE CODE HAVE ALSO BEEN GIVEN BY                    *
 *                                                                             *
 *  M. FERRABONE(1,11), M. DE LA PIERRE(1,11), M. FERRERO(1,11),               *
 *  J. BAIMA(1,11), E. ALBANESE(1,11), M.F. PEINTINGER(12), R. BAST(13),       *
 *  B. KIRTMAN(15), V. LACIVITA(1,11), R. DEMICHELIS(1,16)                     *
 *  G. BRANDEBURG(17), S. SALUSTRO(1,11), G. SANSONE(1,11)                     *
 *  M.T. RUGGIERO(18)                                                          *
 *                                                                             *
 * (1) THEORETICAL CHEMISTRY GROUP - UNIVERSITA' DI TORINO - TORINO (ITALY)    *

 * (2) COMPUTATIONAL SCIENCE & ENGINEERING DEPARTMENT - STFC DARESBURY (UK)    *
 * (3) UNIVERSIDAD AUTONOMA DEL ESTADO DE MORELOS - CUERNAVACA (MEXICO)        *
 * (4) UNIVERSITE' DE LORRAINE - NANCY (FRANCE)                                *
 * (5) UNIVERSITAET STUTTGART- STUTTGART (GERMANY)                             *
 * (6) IMPERIAL COLLEGE - LONDON (UK)                                          *
 * (7) OXFORD E-RESEARCH CENTRE - OXFORD (UK)                                  *
 * (8) UPMC - SORBONNE UNIVERSITES - PARIS (FRANCE)                            *
 * (9) UNIVERSIDAD DE BARCELONA - BARCELONA (SPAIN)                            *
 *(10) UNIVERSITA' DI NAPOLI "FEDERICO II" - NAPOLI (ITALY)                    *
 *(11) NIS - NANOSTRUCTURED INTERFACES AND SURFACES - TORINO (ITALY)           *
 *(12) MPI FUER CHEMISCHE ENERGIEKONVERSION - MUELHEIM AN DER RUHR (GERMANY)   *
 *(13) UNIVERSITY OF TROMSO - TROMSO (NORWAY)                                  *
 *(14) UNIVERSITE' DE PAU ET DES PAYS DE L'ADOUR - PAU (FRANCE)                *
 *(15) UNIVERSITY OF CALIFORNIA SANTA BARBARA - SANTA BARBARA (USA)            *
 *(16) CURTIN UNIVERSITY - PERTH (AUSTRALIA)                                   *
 *(17) UNIVERSITY COLLEGE LONDON - LONDON (UK)                                 *
 *(18) CAMBRIDGE UNIVERSITY - CAMBRIDGE (UK)                                   *
 *                                                                             *
 *******************************************************************************
 EEEEEEEEEE STARTING  DATE 25 03 2019 TIME 17:52:40.7
 !drive by JGB                                                                   

 CRYSTAL CALCULATION
 (INPUT ACCORDING TO THE INTERNATIONAL TABLES FOR X-RAY CRYSTALLOGRAPHY)
 CRYSTAL FAMILY                       :  MONOCLINIC  
 CRYSTAL CLASS  (GROTH - 1921)        :  MONOCLINIC DOMATIC                   

 SPACE GROUP (NONCENTROSYMMETRIC)     :  P C             

 LATTICE PARAMETERS  (ANGSTROMS AND DEGREES) - CONVENTIONAL CELL
        A           B           C        ALPHA        BETA       GAMMA
     4.45997     4.57769    22.93962    90.00000    90.90369    90.00000


 NUMBER OF IRREDUCIBLE ATOMS IN THE CONVENTIONAL CELL:   27

 INPUT COORDINATES

 ATOM AT. N.              COORDINATES
   1   8     9.943617437529E-01  5.566259187361E-01  4.136598417018E-01
   2   8     6.579899222547E-03  4.905898072907E-01  8.309266635710E-02
   3   8     5.062437521431E-01  4.717411474050E-01  7.483820837602E-01
   4   8     3.475800157938E-01  2.186898882013E-01  7.320229549400E-04
   5   8     6.733220618922E-01  7.118980406622E-01  9.959026316259E-01
   6   8     2.660515731563E-01  1.529501434586E-01  6.620810808184E-01
   7   8     7.635589626578E-01  8.257035235544E-01  6.690477108216E-01
   8   8     7.612233667039E-01  1.163735077523E-01  8.278013479922E-01
   9   8     2.585486046766E-01  7.899088329651E-01  8.333333333333E-01
  10   1     1.185868874101E-01  6.701353618131E-01  4.412919230460E-01
  11   1     8.732020999888E-01  4.301771471761E-01  4.387478198991E-01
  12   1     1.272264439269E-01  6.218737829954E-01  1.080598994976E-01
  13   1     8.923678732639E-01  3.735746901487E-01  1.110944246441E-01
  14   1     6.240814702931E-01  3.392812726279E-01  7.737068905463E-01
  15   1     3.912963020112E-01  5.907547349957E-01  7.759699382806E-01
  16   1     2.229952172154E-01  2.695852929440E-01  3.410947716449E-02
  17   1     4.760167771618E-01  3.929631329092E-01  9.972582713116E-01
  18   1     5.576492393679E-01  8.933270973370E-01  0.000000000000E+00
  19   1     7.926963036094E-01  6.753514180590E-01  3.161466561676E-02
  20   1     3.208487297216E-01  2.728772127265E-01  6.963312690509E-01
  21   1     8.900037827276E-02  3.473417295421E-02  6.713736339962E-01
  22   1     7.011001405778E-01  6.951613207129E-01  7.006664820145E-01
  23   1     5.839224979870E-01  9.450412932861E-01  6.606769748704E-01
  24   1     5.840912897495E-01  9.975275037824E-01  8.367543896467E-01
  25   1     8.150772529036E-01  2.352110605204E-01  8.622240276683E-01
  26   1     1.952272491879E-01  6.607767929443E-01  8.651035599190E-01
  27   1     7.939386735243E-02  9.103498663028E-01  8.251691289474E-01

 *******************************************************************************

 << INFORMATION >>: FROM NOW ON, ALL COORDINATES REFER TO THE PRIMITIVE CELL

 *******************************************************************************

 LATTICE PARAMETERS  (ANGSTROMS AND DEGREES) - PRIMITIVE CELL
       A          B          C        ALPHA      BETA     GAMMA        VOLUME
    4.45997    4.57769   22.93962    90.00000  90.90369  90.00000    468.284487

 COORDINATES OF THE EQUIVALENT ATOMS (FRACTIONAL UNITS)

 N. ATOM EQUIV AT. N.          X                  Y                  Z

   1   1   1    8 O    -5.63825624709E-03 -4.43374081264E-01  4.13659841702E-01
   2   1   2    8 O    -5.63825624709E-03  4.43374081264E-01 -8.63401582982E-02

   3   2   1    8 O     6.57989922255E-03  4.90589807291E-01  8.30926663571E-02
   4   2   2    8 O     6.57989922255E-03 -4.90589807291E-01 -4.16907333643E-01

   5   3   1    8 O    -4.93756247857E-01  4.71741147405E-01 -2.51617916240E-01
   6   3   2    8 O    -4.93756247857E-01 -4.71741147405E-01  2.48382083760E-01

   7   4   1    8 O     3.47580015794E-01  2.18689888201E-01  7.32022954940E-04
   8   4   2    8 O     3.47580015794E-01 -2.18689888201E-01 -4.99267977045E-01

   9   5   1    8 O    -3.26677938108E-01 -2.88101959338E-01 -4.09736837406E-03
  10   5   2    8 O    -3.26677938108E-01  2.88101959338E-01  4.95902631626E-01

  11   6   1    8 O     2.66051573156E-01  1.52950143459E-01 -3.37918919182E-01
  12   6   2    8 O     2.66051573156E-01 -1.52950143459E-01  1.62081080818E-01

  13   7   1    8 O    -2.36441037342E-01 -1.74296476446E-01 -3.30952289178E-01
  14   7   2    8 O    -2.36441037342E-01  1.74296476446E-01  1.69047710822E-01

  15   8   1    8 O    -2.38776633296E-01  1.16373507752E-01 -1.72198652008E-01
  16   8   2    8 O    -2.38776633296E-01 -1.16373507752E-01  3.27801347992E-01

  17   9   1    8 O     2.58548604677E-01 -2.10091167035E-01 -1.66666666667E-01
  18   9   2    8 O     2.58548604677E-01  2.10091167035E-01  3.33333333333E-01

  19  10   1    1 H     1.18586887410E-01 -3.29864638187E-01  4.41291923046E-01
  20  10   2    1 H     1.18586887410E-01  3.29864638187E-01 -5.87080769540E-02

  21  11   1    1 H    -1.26797900011E-01  4.30177147176E-01  4.38747819899E-01
  22  11   2    1 H    -1.26797900011E-01 -4.30177147176E-01 -6.12521801009E-02

  23  12   1    1 H     1.27226443927E-01 -3.78126217005E-01  1.08059899498E-01
  24  12   2    1 H     1.27226443927E-01  3.78126217005E-01 -3.91940100502E-01

  25  13   1    1 H    -1.07632126736E-01  3.73574690149E-01  1.11094424644E-01
  26  13   2    1 H    -1.07632126736E-01 -3.73574690149E-01 -3.88905575356E-01

  27  14   1    1 H    -3.75918529707E-01  3.39281272628E-01 -2.26293109454E-01
  28  14   2    1 H    -3.75918529707E-01 -3.39281272628E-01  2.73706890546E-01

  29  15   1    1 H     3.91296302011E-01 -4.09245265004E-01 -2.24030061719E-01
  30  15   2    1 H     3.91296302011E-01  4.09245265004E-01  2.75969938281E-01

  31  16   1    1 H     2.22995217215E-01  2.69585292944E-01  3.41094771645E-02
  32  16   2    1 H     2.22995217215E-01 -2.69585292944E-01 -4.65890522836E-01

  33  17   1    1 H     4.76016777162E-01  3.92963132909E-01 -2.74172868844E-03
  34  17   2    1 H     4.76016777162E-01 -3.92963132909E-01  4.97258271312E-01

  35  18   1    1 H    -4.42350760632E-01 -1.06672902663E-01  0.00000000000E+00
  36  18   2    1 H    -4.42350760632E-01  1.06672902663E-01 -5.00000000000E-01

  37  19   1    1 H    -2.07303696391E-01 -3.24648581941E-01  3.16146656168E-02
  38  19   2    1 H    -2.07303696391E-01  3.24648581941E-01 -4.68385334383E-01

  39  20   1    1 H     3.20848729722E-01  2.72877212727E-01 -3.03668730949E-01
  40  20   2    1 H     3.20848729722E-01 -2.72877212727E-01  1.96331269051E-01

  41  21   1    1 H     8.90003782728E-02  3.47341729542E-02 -3.28626366004E-01
  42  21   2    1 H     8.90003782728E-02 -3.47341729542E-02  1.71373633996E-01

  43  22   1    1 H    -2.98899859422E-01 -3.04838679287E-01 -2.99333517986E-01
  44  22   2    1 H    -2.98899859422E-01  3.04838679287E-01  2.00666482014E-01

  45  23   1    1 H    -4.16077502013E-01 -5.49587067139E-02 -3.39323025130E-01
  46  23   2    1 H    -4.16077502013E-01  5.49587067139E-02  1.60676974870E-01

  47  24   1    1 H    -4.15908710251E-01 -2.47249621755E-03 -1.63245610353E-01
  48  24   2    1 H    -4.15908710251E-01  2.47249621755E-03  3.36754389647E-01

  49  25   1    1 H    -1.84922747096E-01  2.35211060520E-01 -1.37775972332E-01
  50  25   2    1 H    -1.84922747096E-01 -2.35211060520E-01  3.62224027668E-01

  51  26   1    1 H     1.95227249188E-01 -3.39223207056E-01 -1.34896440081E-01
  52  26   2    1 H     1.95227249188E-01  3.39223207056E-01  3.65103559919E-01

  53  27   1    1 H     7.93938673524E-02 -8.96501336972E-02 -1.74830871053E-01
  54  27   2    1 H     7.93938673524E-02  8.96501336972E-02  3.25169128947E-01

 NUMBER OF SYMMETRY OPERATORS         :    2
 *******************************************************************************
 * GEOMETRY EDITING - INPUT COORDINATES ARE GIVEN IN ANGSTROM         
 *******************************************************************************

 GEOMETRY NOW FULLY CONSISTENT WITH THE GROUP

 GCALCO - MAX INDICES DIRECT LATTICE VECTOR    25    25     4
 NO.OF VECTORS CREATED 6999 STARS 1826 RMAX   174.83706 BOHR

 GEOMETRY FOR WAVE FUNCTION - DIMENSIONALITY OF THE SYSTEM    3
 (NON PERIODIC DIRECTION: LATTICE PARAMETER FORMALLY SET TO 500)
 *******************************************************************************
 LATTICE PARAMETERS (ANGSTROMS AND DEGREES) - BOHR = 0.5291772083 ANGSTROM
 PRIMITIVE CELL - CENTRING CODE 1/0 VOLUME=   468.284487 - DENSITY  1.150 g/cm^3
         A              B              C           ALPHA      BETA       GAMMA 
     4.45996727     4.57768566    22.93961654    90.000000  90.903692  90.000000
 *******************************************************************************
 ATOMS IN THE ASYMMETRIC UNIT   27 - ATOMS IN THE UNIT CELL:   54
     ATOM                 X/A                 Y/B                 Z/C    
 *******************************************************************************
      1 T   8 O    -5.638256247092E-03 -4.433740812639E-01  4.136598417018E-01
      2 F   8 O    -5.638256247092E-03  4.433740812639E-01 -8.634015829820E-02
      3 T   8 O     6.579899222547E-03  4.905898072907E-01  8.309266635710E-02
      4 F   8 O     6.579899222547E-03 -4.905898072907E-01 -4.169073336429E-01
      5 T   8 O    -4.937562478569E-01  4.717411474050E-01 -2.516179162398E-01
      6 F   8 O    -4.937562478569E-01 -4.717411474050E-01  2.483820837602E-01
      7 T   8 O     3.475800157938E-01  2.186898882013E-01  7.320229549400E-04
      8 F   8 O     3.475800157938E-01 -2.186898882013E-01 -4.992679770451E-01
      9 T   8 O    -3.266779381078E-01 -2.881019593378E-01 -4.097368374057E-03
     10 F   8 O    -3.266779381078E-01  2.881019593378E-01  4.959026316259E-01
     11 T   8 O     2.660515731563E-01  1.529501434586E-01 -3.379189191816E-01
     12 F   8 O     2.660515731563E-01 -1.529501434586E-01  1.620810808184E-01
     13 T   8 O    -2.364410373422E-01 -1.742964764456E-01 -3.309522891784E-01
     14 F   8 O    -2.364410373422E-01  1.742964764456E-01  1.690477108216E-01
     15 T   8 O    -2.387766332961E-01  1.163735077523E-01 -1.721986520078E-01
     16 F   8 O    -2.387766332961E-01 -1.163735077523E-01  3.278013479922E-01
     17 T   8 O     2.585486046766E-01 -2.100911670349E-01 -1.666666666667E-01
     18 F   8 O     2.585486046766E-01  2.100911670349E-01  3.333333333333E-01
     19 T   1 H     1.185868874101E-01 -3.298646381869E-01  4.412919230460E-01
     20 F   1 H     1.185868874101E-01  3.298646381869E-01 -5.870807695400E-02
     21 T   1 H    -1.267979000112E-01  4.301771471761E-01  4.387478198991E-01
     22 F   1 H    -1.267979000112E-01 -4.301771471761E-01 -6.125218010090E-02
     23 T   1 H     1.272264439269E-01 -3.781262170046E-01  1.080598994976E-01
     24 F   1 H     1.272264439269E-01  3.781262170046E-01 -3.919401005024E-01
     25 T   1 H    -1.076321267361E-01  3.735746901487E-01  1.110944246441E-01
     26 F   1 H    -1.076321267361E-01 -3.735746901487E-01 -3.889055753559E-01
     27 T   1 H    -3.759185297069E-01  3.392812726279E-01 -2.262931094537E-01
     28 F   1 H    -3.759185297069E-01 -3.392812726279E-01  2.737068905463E-01
     29 T   1 H     3.912963020112E-01 -4.092452650043E-01 -2.240300617194E-01
     30 F   1 H     3.912963020112E-01  4.092452650043E-01  2.759699382806E-01
     31 T   1 H     2.229952172154E-01  2.695852929440E-01  3.410947716449E-02
     32 F   1 H     2.229952172154E-01 -2.695852929440E-01 -4.658905228355E-01
     33 T   1 H     4.760167771618E-01  3.929631329092E-01 -2.741728688439E-03
     34 F   1 H     4.760167771618E-01 -3.929631329092E-01  4.972582713116E-01
     35 T   1 H    -4.423507606321E-01 -1.066729026630E-01  0.000000000000E+00
     36 F   1 H    -4.423507606321E-01  1.066729026630E-01 -5.000000000000E-01
     37 T   1 H    -2.073036963906E-01 -3.246485819410E-01  3.161466561676E-02
     38 F   1 H    -2.073036963906E-01  3.246485819410E-01 -4.683853343832E-01
     39 T   1 H     3.208487297216E-01  2.728772127265E-01 -3.036687309491E-01
     40 F   1 H     3.208487297216E-01 -2.728772127265E-01  1.963312690509E-01
     41 T   1 H     8.900037827276E-02  3.473417295421E-02 -3.286263660038E-01
     42 F   1 H     8.900037827276E-02 -3.473417295421E-02  1.713736339962E-01
     43 T   1 H    -2.988998594222E-01 -3.048386792871E-01 -2.993335179855E-01
     44 F   1 H    -2.988998594222E-01  3.048386792871E-01  2.006664820145E-01
     45 T   1 H    -4.160775020130E-01 -5.495870671386E-02 -3.393230251296E-01
     46 F   1 H    -4.160775020130E-01  5.495870671386E-02  1.606769748704E-01
     47 T   1 H    -4.159087102505E-01 -2.472496217554E-03 -1.632456103533E-01
     48 F   1 H    -4.159087102505E-01  2.472496217554E-03  3.367543896467E-01
     49 T   1 H    -1.849227470964E-01  2.352110605204E-01 -1.377759723317E-01
     50 F   1 H    -1.849227470964E-01 -2.352110605204E-01  3.622240276683E-01
     51 T   1 H     1.952272491879E-01 -3.392232070557E-01 -1.348964400810E-01
     52 F   1 H     1.952272491879E-01  3.392232070557E-01  3.651035599190E-01
     53 T   1 H     7.939386735243E-02 -8.965013369718E-02 -1.748308710526E-01
     54 F   1 H     7.939386735243E-02  8.965013369718E-02  3.251691289474E-01

 T = ATOM BELONGING TO THE ASYMMETRIC UNIT

 ****    2 SYMMOPS - TRANSLATORS IN FRACTIONAL UNITS
 **** MATRICES AND TRANSLATORS IN THE CRYSTALLOGRAPHIC REFERENCE FRAME
   V INV                    ROTATION MATRICES                   TRANSLATORS
   1   1  1.00  0.00  0.00  0.00  1.00  0.00  0.00  0.00  1.00  0.00  0.00  0.00
   2   2  1.00  0.00 -0.00  0.00 -1.00 -0.00  0.00  0.00  1.00  0.00  0.00  0.50

 DIRECT LATTICE VECTORS CARTESIAN COMPONENTS (ANGSTROM)
          X                    Y                    Z
   0.445996727000E+01   0.273094232075E-15   0.000000000000E+00
   0.000000000000E+00   0.457768566000E+01   0.000000000000E+00
  -0.361797825723E+00   0.140464639847E-14   0.229367632707E+02


 CARTESIAN COORDINATES - PRIMITIVE CELL
 *******************************************************************************
 *      ATOM          X(ANGSTROM)         Y(ANGSTROM)         Z(ANGSTROM)
 *******************************************************************************
    1     8 O    -1.748076696384E-01 -2.029627173817E+00  9.488017863704E+00
    2     8 O     6.091243222941E-03  2.029627173817E+00 -1.980363771639E+00
    3     8 O    -7.166108490439E-04  2.245765925777E+00  1.905876817763E+00
    4     8 O     1.801823020123E-01 -2.245765925777E+00 -9.562504817581E+00
    5     8 O    -2.111101889791E+00  2.159482685708E+00 -5.771300579456E+00
    6     8 O     2.167966467347E+00 -2.159482685708E+00  5.697081055888E+00
    7     8 O     1.549930649833E+00  1.001093565206E+00  1.679023722617E-02
    8     8 O     1.369031736972E+00 -1.001093565206E+00  1.148517187257E+01
    9     8 O    -1.455490492823E+00 -1.318840207879E+00 -9.398036842855E-02
   10     8 O    -1.636389405684E+00  1.318840207879E+00  1.137440126692E+01
   11     8 O     1.308839638640E+00  7.001576784054E-01 -7.750766253955E+00
   12     8 O     1.127940725778E+00 -7.001576784054E-01  3.717615381389E+00
   13     8 O    -9.347814691884E-01 -7.978744808136E-01 -7.590974310777E+00
   14     8 O    -1.115680382050E+00  7.978744808136E-01  3.877407324567E+00
   15     8 O    -1.002634871453E+00  5.327213376416E-01 -3.949679716634E+00
   16     8 O    -1.183533784314E+00 -5.327213376416E-01  7.518701918709E+00
   17     8 O     1.213417952182E+00 -9.617313226283E-01 -3.822793878448E+00
   18     8 O     1.032519039321E+00  9.617313226283E-01  7.645587756896E+00
   19     1 H     3.692351782332E-01 -1.510016623969E+00  1.012180837217E+01
   20     1 H     5.501340910945E-01  1.510016623969E+00 -1.346573263171E+00
   21     1 H    -7.242524912348E-01  1.969215757888E+00  1.006345488056E+01
   22     1 H    -5.433535783734E-01 -1.969215757888E+00 -1.404926754788E+00
   23     1 H     5.283299391064E-01 -1.730942961252E+00  2.478544333831E+00
   24     1 H     7.092288519678E-01  1.730942961252E+00 -8.989837301513E+00
   25     1 H    -5.202294837296E-01  1.710107502033E+00  2.548146518755E+00
   26     1 H    -3.393305708683E-01 -1.710107502033E+00 -8.920235116589E+00
   27     1 H    -1.594711983703E+00  1.553123016415E+00 -5.190431481327E+00
   28     1 H    -1.775610896564E+00 -1.553123016415E+00  6.277950154016E+00
   29     1 H     1.826222289069E+00 -1.873396181033E+00 -5.138524491175E+00
   30     1 H     1.645323376207E+00  1.873396181033E+00  6.329857144168E+00
   31     1 H     9.822106354726E-01  1.234076729657E+00  7.823610030088E-01
   32     1 H     1.163109548334E+00 -1.234076729657E+00 -1.068602063233E+01
   33     1 H     2.124011197591E+00  1.798861698427E+00 -6.288638187918E-02
   34     1 H     1.943112284729E+00 -1.798861698427E+00  1.140549525346E+01
   35     1 H    -1.972869914279E+00 -4.883150168310E-01  0.000000000000E+00
   36     1 H    -2.153768827140E+00  4.883150168310E-01  1.146838163534E+01
   37     1 H    -9.360058181332E-01 -1.486139158091E+00  7.251381011336E-01
   38     1 H    -7.551069052718E-01  1.486139158091E+00 -1.074324353421E+01
   39     1 H     1.540841519777E+00  1.249146103639E+00 -6.965177794489E+00
   40     1 H     1.359942606915E+00 -1.249146103639E+00  4.503203840854E+00
   41     1 H     5.158350788095E-01  1.590021254444E-01 -7.537625161535E+00
   42     1 H     3.349361659481E-01 -1.590021254444E-01  3.930756473808E+00
   43     1 H    -1.224785374058E+00 -1.395455650786E+00 -6.865742041015E+00
   44     1 H    -1.405684286919E+00  1.395455650786E+00  4.602639594328E+00
   45     1 H    -1.732925708052E+00 -2.515836836162E-01 -7.782971899691E+00
   46     1 H    -1.913824620913E+00  2.515836836162E-01  3.685409735653E+00
   47     1 H    -1.795877328141E+00 -1.131831047950E-02 -3.744325919652E+00
   48     1 H    -1.976776241002E+00  1.131831047950E-02  7.724055715691E+00
   49     1 H    -7.749023523020E-01  1.076722298818E+00 -3.160134861761E+00
   50     1 H    -9.558012651633E-01 -1.076722298818E+00  8.308246773583E+00
   51     1 H     9.195123803092E-01 -1.552857210478E+00 -3.094087712196E+00
   52     1 H     7.386134674478E-01  1.552857210478E+00  8.374293923147E+00
   53     1 H     4.173474788466E-01 -4.103901314427E-01 -4.010054301742E+00
   54     1 H     2.364485659852E-01  4.103901314427E-01  7.458327333602E+00

 *******************************************************************************
 STARTING BASIS SET HANDLING 
 *******************************************************************************

 Loading internal basis set: DEF2-MSVP           

 Please cite in your publication:
 Fully Optimized Contracted Gaussian Basis Sets for Atoms Li to Kr. A. Schäfer, 
 H. Horn and R. Ahlrichs; J. Chem. Phys. 97, 2571 (1992).                       
                                                                                
                    
 S. Grimme, J. G. Brandenburg, C. Bannwarth, and A. Hansen, J. Chem. Phys., 143,
  054107 (2015).                                                                
                                                                                
                    

 *******************************************************************************
 LOCAL ATOMIC FUNCTIONS BASIS SET
 *******************************************************************************
   ATOM   X(AU)   Y(AU)   Z(AU)  N. TYPE  EXPONENT  S COEF   P COEF   D/F/G COEF
 *******************************************************************************
   1 O   -0.330  -3.835  17.930
                                  1 S  
                                         6.773E+03 1.727E-03 0.000E+00 0.000E+00
                                         1.017E+03 1.325E-02 0.000E+00 0.000E+00
                                         2.313E+02 6.603E-02 0.000E+00 0.000E+00
                                         6.501E+01 2.353E-01 0.000E+00 0.000E+00
                                         2.050E+01 5.498E-01 0.000E+00 0.000E+00
                                  2 S  
                                         6.716E+00 1.000E+00 0.000E+00 0.000E+00
                                  3 S  
                                         1.147E+00 1.000E+00 0.000E+00 0.000E+00
                                  4 S  
                                         3.342E-01 1.000E+00 0.000E+00 0.000E+00
                           5-     7 P  
                                         1.769E+01 0.000E+00 4.359E-02 0.000E+00
                                         3.854E+00 0.000E+00 2.318E-01 0.000E+00
                                         1.047E+00 0.000E+00 5.146E-01 0.000E+00
                           8-    10 P  
                                         2.759E-01 0.000E+00 1.000E+00 0.000E+00
                          11-    15 D  
                                         8.000E-01 0.000E+00 0.000E+00 1.000E+00
   2 O    0.012   3.835  -3.742
   3 O   -0.001   4.244   3.602
   4 O    0.340  -4.244 -18.071
   5 O   -3.989   4.081 -10.906
   6 O    4.097  -4.081  10.766
   7 O    2.929   1.892   0.032
   8 O    2.587  -1.892  21.704
   9 O   -2.750  -2.492  -0.178
  10 O   -3.092   2.492  21.495
  11 O    2.473   1.323 -14.647
  12 O    2.131  -1.323   7.025
  13 O   -1.766  -1.508 -14.345
  14 O   -2.108   1.508   7.327
  15 O   -1.895   1.007  -7.464
  16 O   -2.237  -1.007  14.208
  17 O    2.293  -1.817  -7.224
  18 O    1.951   1.817  14.448
  19 H    0.698  -2.854  19.127
                                271 S  
                                         1.874E+01 1.968E-02 0.000E+00 0.000E+00
                                         2.826E+00 1.380E-01 0.000E+00 0.000E+00
                                         6.401E-01 4.783E-01 0.000E+00 0.000E+00
                                272 S  
                                         1.756E-01 1.000E+00 0.000E+00 0.000E+00
  20 H    1.040   2.854  -2.545
  21 H   -1.369   3.721  19.017
  22 H   -1.027  -3.721  -2.655
  23 H    0.998  -3.271   4.684
  24 H    1.340   3.271 -16.988
  25 H   -0.983   3.232   4.815
  26 H   -0.641  -3.232 -16.857
  27 H   -3.014   2.935  -9.808
  28 H   -3.355  -2.935  11.864
  29 H    3.451  -3.540  -9.710
  30 H    3.109   3.540  11.962
  31 H    1.856   2.332   1.478
  32 H    2.198  -2.332 -20.194
  33 H    4.014   3.399  -0.119
  34 H    3.672  -3.399  21.553
  35 H   -3.728  -0.923   0.000
  36 H   -4.070   0.923  21.672
  37 H   -1.769  -2.808   1.370
  38 H   -1.427   2.808 -20.302
  39 H    2.912   2.361 -13.162
  40 H    2.570  -2.361   8.510
  41 H    0.975   0.300 -14.244
  42 H    0.633  -0.300   7.428
  43 H   -2.315  -2.637 -12.974
  44 H   -2.656   2.637   8.698
  45 H   -3.275  -0.475 -14.708
  46 H   -3.617   0.475   6.964
  47 H   -3.394  -0.021  -7.076
  48 H   -3.736   0.021  14.596
  49 H   -1.464   2.035  -5.972
  50 H   -1.806  -2.035  15.700
  51 H    1.738  -2.934  -5.847
  52 H    1.396   2.934  15.825
  53 H    0.789  -0.776  -7.578
  54 H    0.447   0.776  14.094

 *******************************************************************************
 FINISHED BASIS SET HANDLING 
 *******************************************************************************

 INFORMATION **** SET_MPP **** PCRYSTAL CALCULATION
 INFORMATION **** READM2 **** NEW DEFAULT: FOCK/KS MATRIX MIXING SET TO 30 %
 INFORMATION **** READM2 **** NEW DEFAULT: FULL DIRECT SCF MODE
 INFORMATION **** READM2 **** NEW DEFAULT: COULOMB BIPOLAR BUFFER SET TO 32 Mb
 INFORMATION **** READM2 **** NEW DEFAULT: EXCHANGE BIPOLAR BUFFER SET TO 32 Mb

 *******************************************************************************
 NEW DEFAULT: DFT INTEGRATION GRID INCREASED TO XLGRID
 NEW DEFAULT: DIIS ACCELERATOR ACTIVE
 USE KEYWORD NODIIS TO TURN IT OFF
 *******************************************************************************

 INFORMATION **** RDDFTP **** HSE-3c calculation
 INFORMATION **** RDDFTP **** HSE screened hybrid functional combined with D3 and gCP

PLEASE CITE:
(1) HSE-3c Reference
 J. G. Brandenburg, E. Caldeweyer, and S. Grimme, 
 Phys. Chem. Chem. Phys. 18, 15519 (2016)
(2) DFT-D3 Reference
 S. Grimme, J. Antony, S. Ehrlich,
 and H. Krieg, J. Chem. Phys. 132, 154104 (2010)
(3) gCP Reference
 H. Kruse and S. Grimme J. Chem. Phys, 136, 154101 (2012)
 J. G. Brandenburg, M. Alessio, B. Civalleri, M. F. Peintinger
 T. Bredow, and S. Grimme, J. Phys. Chem. A, 117, 9282 (2013) 

 WARNING **** RDDFTP **** HSE3c-HJS ACTIVE
 RANGE SEPARATION - OMEGA:   0.110000000000000     
 WARNING **** RDDFTP **** HSE-3c has to be combined with def2-mSVP basis set
 WARNING **** RDDFTP **** Note: Harmonic frequencies are scaled by 0.95
 WARNING **** RDDFTP **** as recommended in original publication
 INFORMATION **** BIPOSIZE **** COULOMB BIPOLAR BUFFER SET TO    60000000
 INFORMATION **** EXCHSIZE **** EXCHANGE BIPOLAR BUFFER SIZE SET TO    40000000
 *******************************************************************************
 N. OF ATOMS PER CELL        54  COULOMB OVERLAP TOL         (T1) 10**   -6
 NUMBER OF SHELLS           198  COULOMB PENETRATION TOL     (T2) 10**   -6
 NUMBER OF AO               342  EXCHANGE OVERLAP TOL        (T3) 10**   -6
 N. OF ELECTRONS PER CELL   180  EXCHANGE PSEUDO OVP (F(G))  (T4) 10**   -6
 CORE ELECTRONS PER CELL     36  EXCHANGE PSEUDO OVP (P(G))  (T5) 10**  -12
 N. OF SYMMETRY OPERATORS     2  POLE ORDER IN MONO ZONE                  4
 *******************************************************************************
 TYPE OF CALCULATION :  RESTRICTED CLOSED SHELL
 KOHN-SHAM HAMILTONIAN

 (EXCHANGE)[CORRELATION] FUNCTIONAL:(HSE-3c)[PBEh-3c]

 RANGE-SEPARATED HYBRID FUNCTIONAL 
 OMEGA (SHORT-RANGE)[LONG-RANGE]:(    0.1100)[    0.0000]

 HYBRID EXCHANGE - PERCENTAGE OF FOCK EXCHANGE    42.0000

 CAPPA:IS1  2;IS2  2;IS3  1; K PTS MONK NET   4; SYMMOPS:K SPACE   4;G SPACE   2

 *******************************************************************************
 MAX NUMBER OF SCF CYCLES      50  CONVERGENCE ON DELTAP        10**-16
 WEIGHT OF F(I) IN F(I+1)      30% CONVERGENCE ON ENERGY        10**- 6
 S(K) EIGENV. THRESHOLD  10*10.**-4
 SHRINK. FACT.(MONKH.)    2  2  1  NUMBER OF K POINTS IN THE IBZ      4
 SHRINKING FACTOR(GILAT NET)    2  NUMBER OF K POINTS(GILAT NET)      4
 *******************************************************************************
 *** K POINTS COORDINATES (OBLIQUE COORDINATES IN UNITS OF IS =  2)
   1-R(  0  0  0)   2-R(  1  0  0)   3-R(  0  1  0)   4-R(  1  1  0)

 DIRECT LATTICE VECTORS COMPON. (A.U.)     RECIP. LATTICE VECTORS COMPON. (A.U.) 
        X            Y            Z              X            Y            Z
    8.4281167    0.0000000    0.0000000      0.7455029    0.0000000    0.0117593
    0.0000000    8.6505722    0.0000000     -0.0000000    0.7263318   -0.0000000
   -0.6836988    0.0000000   43.3442010      0.0000000    0.0000000    0.1449602

 DISK SPACE FOR EIGENVECTORS (FTN 10)      467856 REALS

 SYMMETRY ADAPTION OF THE BLOCH FUNCTIONS ENABLED
 TTTTTTTTTTTTTTTTTTTTTTTTTTTTTT gordsh1     TELAPSE        0.34 TCPU        0.05

 MATRIX SIZE: P(G)  197350, F(G)   35422, P(G) IRR   50071, F(G) IRR   17963
 MAX G-VECTOR INDEX FOR 1- AND 2-ELECTRON INTEGRALS 147

 TTTTTTTTTTTTTTTTTTTTTTTTTTTTTT INPUT       TELAPSE        0.35 TCPU        0.06

 NEIGHBORS OF THE NON-EQUIVALENT ATOMS

 N = NUMBER OF NEIGHBORS AT DISTANCE R
    ATOM  N     R/ANG      R/AU   NEIGHBORS (ATOM LABELS AND CELL INDICES)
   1 O    1     0.9837     1.8589   19 H    0 0 0
   1 O    1     0.9839     1.8593   21 H    0-1 0
   1 O    1     1.7058     3.2235   50 H    0 0 0
   1 O    1     1.7508     3.3084   52 H    0-1 0
   1 O    1     2.6714     5.0482   16 O    0 0 0
   1 O    1     2.6843     5.0727   10 O    0-1 0

   3 O    1     0.9844     1.8602   23 H    0 1 0
   3 O    1     0.9845     1.8605   25 H    0 0 0
   3 O    1     1.7275     3.2645   37 H    0 1 0
   3 O    1     1.8033     3.4078   31 H    0 0 0
   3 O    1     2.6725     5.0502    9 O    0 1 0
   3 O    1     2.6868     5.0773   12 O    0 1 0

   5 O    1     0.9851     1.8615   29 H   -1 1 0
   5 O    1     0.9858     1.8628   27 H    0 0 0
   5 O    1     1.7050     3.2219   39 H   -1 0 0
   5 O    1     1.7405     3.2891   43 H    0 1 0
   5 O    1     2.6701     5.0458   11 O   -1 0 0
   5 O    1     2.6820     5.0683   15 O    0 0 0

   7 O    1     0.9812     1.8541   31 H    0 0 0
   7 O    1     0.9861     1.8634   33 H    0 0 0
   7 O    1     1.7598     3.3255   35 H    1 0 0
   7 O    1     1.7656     3.3365   20 H    0 0 0
   7 O    1     2.6880     5.0796    9 O    1 1 0
   7 O    1     2.7258     5.1510    2 O    0 0 0

   9 O    1     0.9830     1.8576   35 H    0 0 0
   9 O    1     0.9843     1.8600   37 H    0 0 0
   9 O    1     1.7052     3.2224   33 H   -1-1 0
   9 O    1     1.7244     3.2586   22 H    0 0 0
   9 O    1     2.6725     5.0502    3 O    0-1 0
   9 O    1     2.6843     5.0727    2 O    0-1 0

  11 O    1     0.9834     1.8584   41 H    0 0 0
  11 O    1     0.9861     1.8634   39 H    0 0 0
  11 O    1     1.7083     3.2281   45 H    1 0 0
  11 O    1     1.7197     3.2498   24 H    0 0 0
  11 O    1     2.6701     5.0458    5 O    1 0 0
  11 O    1     2.6799     5.0643   13 O    1 0 0

  13 O    1     0.9834     1.8584   43 H    0 0 0
  13 O    1     0.9861     1.8634   45 H    0 0 0
  13 O    1     1.7186     3.2477   26 H    0 0 0
  13 O    1     1.7386     3.2855   41 H    0 0 0
  13 O    1     2.6799     5.0643   11 O   -1 0 0
  13 O    1     2.6882     5.0800    4 O    0 0 0

  15 O    1     0.9836     1.8587   47 H    0 0 0
  15 O    1     0.9855     1.8623   49 H    0 0 0
  15 O    1     1.7057     3.2233   53 H    0 0 0
  15 O    1     1.7121     3.2354   27 H    0 0 0
  15 O    1     2.6714     5.0482    2 O    0 0 0
  15 O    1     2.6759     5.0567   17 O    0 0 0

  17 O    1     0.9833     1.8581   51 H    0 0 0
  17 O    1     0.9863     1.8638   53 H    0 0 0
  17 O    1     1.7140     3.2390   29 H    0 0 0
  17 O    1     1.7361     3.2807   47 H    1 0 0
  17 O    1     2.6759     5.0567   15 O    0 0 0
  17 O    1     2.6846     5.0732    5 O    1-1 0

  19 H    1     0.9837     1.8589    1 O    0 0 0
  19 H    1     1.5510     2.9310   21 H    0-1 0
  19 H    1     1.7656     3.3365    8 O    0 0 0
  19 H    1     2.0514     3.8766   34 H    0 0 0
  19 H    1     2.1898     4.1381   32 H    0 0 1
  19 H    1     2.2875     4.3227   50 H    0 0 0

  21 H    1     0.9839     1.8593    1 O    0 1 0
  21 H    1     1.5510     2.9310   19 H    0 1 0
  21 H    1     1.7244     3.2586   10 O    0 0 0
  21 H    1     2.2192     4.1936   38 H    0 0 1
  21 H    1     2.2730     4.2954   52 H    0 0 0
  21 H    1     2.3411     4.4240   50 H    0 1 0

  23 H    1     0.9844     1.8602    3 O    0-1 0
  23 H    1     1.5480     2.9253   25 H    0-1 0
  23 H    1     1.7197     3.2498   12 O    0 0 0
  23 H    1     2.1488     4.0606   42 H    0 0 0
  23 H    1     2.2412     4.2352   40 H    0 0 0
  23 H    1     2.2975     4.3417   37 H    0 0 0

  25 H    1     0.9845     1.8605    3 O    0 0 0
  25 H    1     1.5480     2.9253   23 H    0 1 0
  25 H    1     1.7186     3.2477   14 O    0 0 0
  25 H    1     2.2592     4.2693   44 H    0 0 0
  25 H    1     2.3158     4.3762   46 H    0 0 0
  25 H    1     2.3248     4.3932   37 H    0 1 0

  27 H    1     0.9858     1.8628    5 O    0 0 0
  27 H    1     1.5516     2.9321   29 H   -1 1 0
  27 H    1     1.7121     3.2354   15 O    0 0 0
  27 H    1     2.1399     4.0438   47 H    0 0 0
  27 H    1     2.2352     4.2239   39 H   -1 0 0
  27 H    1     2.2408     4.2345   49 H    0 0 0

  29 H    1     0.9851     1.8615    5 O    1-1 0
  29 H    1     1.5516     2.9321   27 H    1-1 0
  29 H    1     1.7140     3.2390   17 O    0 0 0
  29 H    1     2.2593     4.2695   51 H    0 0 0
  29 H    1     2.2797     4.3079   43 H    1 0 0
  29 H    1     2.3235     4.3908   53 H    0 0 0

  31 H    1     0.9812     1.8541    7 O    0 0 0
  31 H    1     1.5288     2.8890   33 H    0 0 0
  31 H    1     1.8033     3.4078    3 O    0 0 0
  31 H    1     2.1898     4.1381   20 H    0 0 0
  31 H    1     2.3668     4.4727   25 H    0 0 0
  31 H    1     2.3841     4.5052   23 H    0 1 0

  33 H    1     0.9861     1.8634    7 O    0 0 0
  33 H    1     1.5288     2.8890   31 H    0 0 0
  33 H    1     1.7052     3.2224    9 O    1 1 0
  33 H    1     2.0514     3.8766   20 H    0 0 0
  33 H    1     2.0620     3.8966   37 H    1 1 0
  33 H    1     2.3167     4.3779   35 H    1 0 0

  35 H    1     0.9830     1.8576    9 O    0 0 0
  35 H    1     1.6114     3.0451   37 H    0 0 0
  35 H    1     1.7598     3.3255    7 O   -1 0 0
  35 H    1     2.3167     4.3779   33 H   -1 0 0
  35 H    1     2.3200     4.3841   33 H   -1-1 0
  35 H    1     2.4173     4.5681   31 H   -1 0 0

  37 H    1     0.9843     1.8600    9 O    0 0 0
  37 H    1     1.6114     3.0451   35 H    0 0 0
  37 H    1     1.7275     3.2645    3 O    0-1 0
  37 H    1     2.0620     3.8966   33 H   -1-1 0
  37 H    1     2.2192     4.1936   22 H    0 0 0
  37 H    1     2.2975     4.3417   23 H    0 0 0

  39 H    1     0.9861     1.8634   11 O    0 0 0
  39 H    1     1.6021     3.0275   41 H    0 0 0
  39 H    1     1.7050     3.2219    5 O    1 0 0
  39 H    1     2.0804     3.9314   45 H    1 0 0
  39 H    1     2.2352     4.2239   27 H    1 0 0
  39 H    1     2.2412     4.2352   24 H    0 0 0

  41 H    1     0.9834     1.8584   11 O    0 0 0
  41 H    1     1.6021     3.0275   39 H    0 0 0
  41 H    1     1.7386     3.2855   13 O    0 0 0
  41 H    1     2.1488     4.0606   24 H    0 0 0
  41 H    1     2.2623     4.2752   45 H    1 0 0
  41 H    1     2.2991     4.3446   45 H    0 0 0

  43 H    1     0.9834     1.8584   13 O    0 0 0
  43 H    1     1.5518     2.9324   45 H    0 0 0
  43 H    1     1.7405     3.2891    5 O    0-1 0
  43 H    1     2.2592     4.2693   26 H    0 0 0
  43 H    1     2.2797     4.3079   29 H   -1 0 0
  43 H    1     2.3659     4.4709   27 H    0-1 0

  45 H    1     0.9861     1.8634   13 O    0 0 0
  45 H    1     1.5518     2.9324   43 H    0 0 0
  45 H    1     1.7083     3.2281   11 O   -1 0 0
  45 H    1     2.0804     3.9314   39 H   -1 0 0
  45 H    1     2.2623     4.2752   41 H   -1 0 0
  45 H    1     2.2991     4.3446   41 H    0 0 0

  47 H    1     0.9836     1.8587   15 O    0 0 0
  47 H    1     1.6023     3.0280   49 H    0 0 0
  47 H    1     1.7361     3.2807   17 O   -1 0 0
  47 H    1     2.1399     4.0438   27 H    0 0 0
  47 H    1     2.2646     4.2794   53 H    0 0 0
  47 H    1     2.2973     4.3413   53 H   -1 0 0

  49 H    1     0.9855     1.8623   15 O    0 0 0
  49 H    1     1.6023     3.0280   47 H    0 0 0
  49 H    1     1.7058     3.2235    2 O    0 0 0
  49 H    1     2.0869     3.9437   53 H    0 0 0
  49 H    1     2.2408     4.2345   27 H    0 0 0
  49 H    1     2.2875     4.3227   20 H    0 0 0

  51 H    1     0.9833     1.8581   17 O    0 0 0
  51 H    1     1.5480     2.9254   53 H    0 0 0
  51 H    1     1.7508     3.3084    2 O    0-1 0
  51 H    1     2.2593     4.2695   29 H    0 0 0
  51 H    1     2.2730     4.2954   22 H    0 0 0
  51 H    1     2.3420     4.4257   20 H    0-1 0

  53 H    1     0.9863     1.8638   17 O    0 0 0
  53 H    1     1.5480     2.9254   51 H    0 0 0
  53 H    1     1.7057     3.2233   15 O    0 0 0
  53 H    1     2.0869     3.9437   49 H    0 0 0
  53 H    1     2.2646     4.2794   47 H    0 0 0
  53 H    1     2.2973     4.3413   47 H    1 0 0


 SYMMETRY ALLOWED INTERNAL DEGREE(S) OF FREEDOM:  79
 TTTTTTTTTTTTTTTTTTTTTTTTTTTTTT SYMM        TELAPSE        0.38 TCPU        0.08
 TTTTTTTTTTTTTTTTTTTTTTTTTTTTTT INT_SCREEN  TELAPSE        0.38 TCPU        0.09

 DFT PARAMETERS

     ATOM       ELECTRONS   NET CHARGE   R(ANGSTROM)
   1   8  O       8.0000      0.0000     0.74000000
  19   1  H       1.0000      0.0000     1.11000000

 SIZE OF GRID=     608175
 TTTTTTTTTTTTTTTTTTTTTTTTTTTTTT MAKE_GRID2  TELAPSE       10.43 TCPU       10.12
 BECKE WEIGHT FUNCTION
 RADSAFE =     2.00
 TOLERANCES - DENSITY:10**- 6; POTENTIAL:10**- 9; GRID WGT:10**-14

 RADIAL INTEGRATION  - INTERVALS (POINTS,UPPER LIMIT):            1( 75,  4.0*R)

 ANGULAR INTEGRATION - INTERVALS (ACCURACY LEVEL [N. POINTS] UPPER LIMIT):
  1(  4[  86]   0.2)  2(  8[ 194]   0.5)  3( 12[ 350]   0.9)  4( 16[ 974]   3.5)
  5( 12[ 350]9999.0)
 TTTTTTTTTTTTTTTTTTTTTTTTTTTTTT INT_CALC    TELAPSE       10.46 TCPU       10.16
 EEEEEEEEEE INT_CALC TERMINATION  DATE 25 03 2019 TIME 17:52:51.0

 *******************************************************************************
 !drive by JGB                                                                   
 CRYSTAL - SCF - TYPE OF CALCULATION :  RESTRICTED CLOSED SHELL
 *******************************************************************************

 CAPPA:IS1  2;IS2  2;IS3  1; K PTS MONK NET   4; SYMMOPS:K SPACE   4;G SPACE   2

 TTTTTTTTTTTTTTTTTTTTTTTTTTTTTT SDIK        TELAPSE       10.91 TCPU       10.48

 AAAAAAAAAAAAAAAAAAAAAAAAAAAAAAAAAAAAAAAAAAAAAAAAAAAAAAAAAAAAAAAAAAAAAAAAAAAAAAA
         ATOMIC WAVEFUNCTION(S)


 NUCLEAR CHARGE  8.0  SYMMETRY SPECIES            S    P
 N. ELECTRONS    8.0  NUMBER OF PRIMITIVE GTOS    8    4
                      NUMBER OF CONTRACTED GTOS   4    2
                      NUMBER OF CLOSED SHELLS     2    0
                      OPEN SHELL OCCUPATION       0    4

  ZNUC SCFIT  TOTAL HF ENERGY   KINETIC ENERGY   VIRIAL THEOREM ACCURACY
   8.0  12   -7.477373220E+01  7.477365593E+01 -2.000001020E+00  3.8E-06

 NUCLEAR CHARGE  1.0  SYMMETRY SPECIES            S
 N. ELECTRONS    1.0  NUMBER OF PRIMITIVE GTOS    4
                      NUMBER OF CONTRACTED GTOS   2
                      NUMBER OF CLOSED SHELLS     0
                      OPEN SHELL OCCUPATION       1

  ZNUC SCFIT  TOTAL HF ENERGY   KINETIC ENERGY   VIRIAL THEOREM ACCURACY
   1.0   1   -4.977266687E-01  5.190767460E-01 -1.958869132E+00  1.8E-16

 AAAAAAAAAAAAAAAAAAAAAAAAAAAAAAAAAAAAAAAAAAAAAAAAAAAAAAAAAAAAAAAAAAAAAAAAAAAAAAA

 CHARGE NORMALIZATION FACTOR   1.00000000
 TOTAL ATOMIC CHARGES:
   8.0000000   8.0000000   8.0000000   8.0000000   8.0000000   8.0000000
   8.0000000   8.0000000   8.0000000   8.0000000   8.0000000   8.0000000
   8.0000000   8.0000000   8.0000000   8.0000000   8.0000000   8.0000000
   1.0000000   1.0000000   1.0000000   1.0000000   1.0000000   1.0000000
   1.0000000   1.0000000   1.0000000   1.0000000   1.0000000   1.0000000
   1.0000000   1.0000000   1.0000000   1.0000000   1.0000000   1.0000000
   1.0000000   1.0000000   1.0000000   1.0000000   1.0000000   1.0000000
   1.0000000   1.0000000   1.0000000   1.0000000   1.0000000   1.0000000
   1.0000000   1.0000000   1.0000000   1.0000000   1.0000000   1.0000000
 TTTTTTTTTTTTTTTTTTTTTTTTTTTTTT MOQGAD      TELAPSE       15.39 TCPU       14.96
 TTTTTTTTTTTTTTTTTTTTTTTTTTTTTT SHELLXN     TELAPSE       28.25 TCPU       27.82
 TTTTTTTTTTTTTTTTTTTTTTTTTTTTTT MONMO3      TELAPSE       30.59 TCPU       30.16
 NUMERICALLY INTEGRATED DENSITY    180.0000155510
 TTTTTTTTTTTTTTTTTTTTTTTTTTTTTT NUMDFT      TELAPSE       31.58 TCPU       31.15
 CYC   0 ETOT(AU) -1.373909032952E+03 DETOT -1.37E+03 tst  0.00E+00 PX  1.00E+00
 TTTTTTTTTTTTTTTTTTTTTTTTTTTTTT DIIS        TELAPSE       31.59 TCPU       31.16
 TTTTTTTTTTTTTTTTTTTTTTTTTTTTTT FDIK        TELAPSE       31.67 TCPU       31.19
 INSULATING STATE
 TOP OF VALENCE BANDS -    BAND     90; K    2; EIG -4.1471171E-01 AU
 TOP OF VALENCE BANDS -    BAND     90; K    1; EIG -4.1581314E-01 AU
 BOTTOM OF VIRTUAL BANDS - BAND     91; K    1; EIG -7.6941144E-02 AU
 INDIRECT ENERGY BAND GAP:   9.1912 eV
 TTTTTTTTTTTTTTTTTTTTTTTTTTTTTT PDIG        TELAPSE       31.67 TCPU       31.20
 CHARGE NORMALIZATION FACTOR   1.00000000
 TOTAL ATOMIC CHARGES:
   9.0670261   9.0670261   9.0834514   9.0834514   9.0766363   9.0766363
   9.0669861   9.0669861   9.0738463   9.0738463   9.0685815   9.0685815
   9.0762336   9.0762336   9.0676218   9.0676218   9.0748661   9.0748661
   0.4683874   0.4683874   0.4606814   0.4606814   0.4657189   0.4657189
   0.4654453   0.4654453   0.4650530   0.4650530   0.4635993   0.4635993
   0.4658476   0.4658476   0.4709567   0.4709567   0.4550436   0.4550436
   0.4618757   0.4618757   0.4622398   0.4622398   0.4612619   0.4612619
   0.4627380   0.4627380   0.4652378   0.4652378   0.4610424   0.4610424
   0.4613927   0.4613927   0.4634533   0.4634533   0.4647759   0.4647759
 TTTTTTTTTTTTTTTTTTTTTTTTTTTTTT MOQGAD      TELAPSE       31.68 TCPU       31.20
 TTTTTTTTTTTTTTTTTTTTTTTTTTTTTT SHELLXN     TELAPSE       44.85 TCPU       44.37
 TTTTTTTTTTTTTTTTTTTTTTTTTTTTTT MONMO3      TELAPSE       47.25 TCPU       46.77
 NUMERICALLY INTEGRATED DENSITY    180.0000129245
 TTTTTTTTTTTTTTTTTTTTTTTTTTTTTT NUMDFT      TELAPSE       49.45 TCPU       48.97
 CYC   1 ETOT(AU) -1.372887017595E+03 DETOT  1.02E+00 tst  0.00E+00 PX  1.00E+00
 TTTTTTTTTTTTTTTTTTTTTTTTTTTTTT DIIS        TELAPSE       49.47 TCPU       48.99
 DIIS TEST: 0.17925E+01 AT SCF   CYCLE   1 - MIX   30 %
 TTTTTTTTTTTTTTTTTTTTTTTTTTTTTT FDIK        TELAPSE       49.50 TCPU       49.02
 INSULATING STATE
 TOP OF VALENCE BANDS -    BAND     90; K    2; EIG -3.1464136E-01 AU
 TOP OF VALENCE BANDS -    BAND     90; K    1; EIG -3.1654367E-01 AU
 BOTTOM OF VIRTUAL BANDS - BAND     91; K    1; EIG -1.6591901E-02 AU
 INDIRECT ENERGY BAND GAP:   8.1103 eV
 TTTTTTTTTTTTTTTTTTTTTTTTTTTTTT PDIG        TELAPSE       49.51 TCPU       49.02
 CHARGE NORMALIZATION FACTOR   1.00000000
 TOTAL ATOMIC CHARGES:
   8.8631615   8.8631615   8.8656197   8.8656197   8.8672009   8.8672009
   8.8496291   8.8496291   8.8687970   8.8687970   8.8649098   8.8649098
   8.8669146   8.8669146   8.8643360   8.8643360   8.8656915   8.8656915
   0.5737709   0.5737709   0.5617450   0.5617450   0.5708020   0.5708020
   0.5724549   0.5724549   0.5674588   0.5674588   0.5680048   0.5680048
   0.5755199   0.5755199   0.5786535   0.5786535   0.5568574   0.5568574
   0.5676466   0.5676466   0.5660684   0.5660684   0.5657810   0.5657810
   0.5679032   0.5679032   0.5676749   0.5676749   0.5650342   0.5650342
   0.5636207   0.5636207   0.5686715   0.5686715   0.5660722   0.5660722
 TTTTTTTTTTTTTTTTTTTTTTTTTTTTTT MOQGAD      TELAPSE       49.51 TCPU       49.03
 TTTTTTTTTTTTTTTTTTTTTTTTTTTTTT SHELLXN     TELAPSE       62.69 TCPU       62.21
 TTTTTTTTTTTTTTTTTTTTTTTTTTTTTT MONMO3      TELAPSE       65.08 TCPU       64.60
 NUMERICALLY INTEGRATED DENSITY    180.0000108056
 TTTTTTTTTTTTTTTTTTTTTTTTTTTTTT NUMDFT      TELAPSE       67.21 TCPU       66.73
 CYC   2 ETOT(AU) -1.373258904147E+03 DETOT -3.72E-01 tst  2.35E-03 PX  1.23E-01
 TTTTTTTTTTTTTTTTTTTTTTTTTTTTTT DIIS        TELAPSE       71.03 TCPU       70.55
 DIIS TEST: 0.38231E+00 AT SCF   CYCLE   2 - DIIS ACTIVE - HISTORY:     2 CYCLES
 TTTTTTTTTTTTTTTTTTTTTTTTTTTTTT FDIK        TELAPSE       71.19 TCPU       70.70
 INSULATING STATE
 TOP OF VALENCE BANDS -    BAND     90; K    2; EIG -3.5852799E-01 AU
 TOP OF VALENCE BANDS -    BAND     90; K    1; EIG -3.6044489E-01 AU
 BOTTOM OF VIRTUAL BANDS - BAND     91; K    1; EIG -1.8094243E-02 AU
 INDIRECT ENERGY BAND GAP:   9.2637 eV
 TTTTTTTTTTTTTTTTTTTTTTTTTTTTTT PDIG        TELAPSE       71.20 TCPU       70.71
 CHARGE NORMALIZATION FACTOR   1.00000000
 TOTAL ATOMIC CHARGES:
   8.9332797   8.9332797   8.9404103   8.9404103   8.9381268   8.9381268
   8.9256416   8.9256416   8.9371773   8.9371773   8.9342750   8.9342750
   8.9374967   8.9374967   8.9339278   8.9339278   8.9369954   8.9369954
   0.5371050   0.5371050   0.5276663   0.5276663   0.5337555   0.5337555
   0.5351506   0.5351506   0.5318814   0.5318814   0.5325452   0.5325452
   0.5380863   0.5380863   0.5408885   0.5408885   0.5224379   0.5224379
   0.5322457   0.5322457   0.5314173   0.5314173   0.5312570   0.5312570
   0.5324016   0.5324016   0.5320151   0.5320151   0.5304578   0.5304578
   0.5296999   0.5296999   0.5332889   0.5332889   0.5303693   0.5303693
 TTTTTTTTTTTTTTTTTTTTTTTTTTTTTT MOQGAD      TELAPSE       71.20 TCPU       70.72
 TTTTTTTTTTTTTTTTTTTTTTTTTTTTTT SHELLXN     TELAPSE       84.45 TCPU       83.90
 TTTTTTTTTTTTTTTTTTTTTTTTTTTTTT MONMO3      TELAPSE       86.83 TCPU       86.28
 NUMERICALLY INTEGRATED DENSITY    180.0000115061
 TTTTTTTTTTTTTTTTTTTTTTTTTTTTTT NUMDFT      TELAPSE       88.95 TCPU       88.40
 CYC   3 ETOT(AU) -1.373358270770E+03 DETOT -9.94E-02 tst  2.23E-04 PX  4.02E-02
 TTTTTTTTTTTTTTTTTTTTTTTTTTTTTT DIIS        TELAPSE       88.96 TCPU       88.41
 DIIS TEST: 0.12107E-02 AT SCF   CYCLE   3 - DIIS ACTIVE - HISTORY:     3 CYCLES
 TTTTTTTTTTTTTTTTTTTTTTTTTTTTTT FDIK        TELAPSE       88.98 TCPU       88.42
 INSULATING STATE
 TOP OF VALENCE BANDS -    BAND     90; K    2; EIG -3.5688440E-01 AU
 TOP OF VALENCE BANDS -    BAND     90; K    1; EIG -3.5860333E-01 AU
 BOTTOM OF VIRTUAL BANDS - BAND     91; K    1; EIG -1.6007276E-02 AU
 INDIRECT ENERGY BAND GAP:   9.2757 eV
 TTTTTTTTTTTTTTTTTTTTTTTTTTTTTT PDIG        TELAPSE       88.98 TCPU       88.43
 CHARGE NORMALIZATION FACTOR   1.00000000
 TOTAL ATOMIC CHARGES:
   8.9317801   8.9317801   8.9368421   8.9368421   8.9366362   8.9366362
   8.9203322   8.9203322   8.9373686   8.9373686   8.9336338   8.9336338
   8.9363050   8.9363050   8.9330191   8.9330191   8.9348491   8.9348491
   0.5381255   0.5381255   0.5284460   0.5284460   0.5351497   0.5351497
   0.5365283   0.5365283   0.5325988   0.5325988   0.5333141   0.5333141
   0.5403445   0.5403445   0.5423739   0.5423739   0.5232489   0.5232489
   0.5329920   0.5329920   0.5318524   0.5318524   0.5317204   0.5317204
   0.5330977   0.5330977   0.5327005   0.5327005   0.5310476   0.5310476
   0.5301556   0.5301556   0.5341710   0.5341710   0.5313669   0.5313669
 TTTTTTTTTTTTTTTTTTTTTTTTTTTTTT MOQGAD      TELAPSE       88.99 TCPU       88.43
 TTTTTTTTTTTTTTTTTTTTTTTTTTTTTT SHELLXN     TELAPSE      102.19 TCPU      101.63
 TTTTTTTTTTTTTTTTTTTTTTTTTTTTTT MONMO3      TELAPSE      104.57 TCPU      104.01
 NUMERICALLY INTEGRATED DENSITY    180.0000114665
 TTTTTTTTTTTTTTTTTTTTTTTTTTTTTT NUMDFT      TELAPSE      106.71 TCPU      106.15
 CYC   4 ETOT(AU) -1.373358476578E+03 DETOT -2.06E-04 tst  9.76E-07 PX  2.39E-03
 TTTTTTTTTTTTTTTTTTTTTTTTTTTTTT DIIS        TELAPSE      106.72 TCPU      106.16
 DIIS TEST: 0.90221E-04 AT SCF   CYCLE   4 - DIIS ACTIVE - HISTORY:     4 CYCLES
 TTTTTTTTTTTTTTTTTTTTTTTTTTTTTT FDIK        TELAPSE      106.74 TCPU      106.17
 INSULATING STATE
 TOP OF VALENCE BANDS -    BAND     90; K    2; EIG -3.5681237E-01 AU
 TOP OF VALENCE BANDS -    BAND     90; K    1; EIG -3.5866034E-01 AU
 BOTTOM OF VIRTUAL BANDS - BAND     91; K    1; EIG -1.5790508E-02 AU
 INDIRECT ENERGY BAND GAP:   9.2797 eV
 TTTTTTTTTTTTTTTTTTTTTTTTTTTTTT PDIG        TELAPSE      106.74 TCPU      106.18
 CHARGE NORMALIZATION FACTOR   1.00000000
 TOTAL ATOMIC CHARGES:
   8.9313999   8.9313999   8.9386931   8.9386931   8.9364506   8.9364506
   8.9241584   8.9241584   8.9349381   8.9349381   8.9324631   8.9324631
   8.9356118   8.9356118   8.9321798   8.9321798   8.9352397   8.9352397
   0.5378741   0.5378741   0.5286808   0.5286808   0.5346772   0.5346772
   0.5360413   0.5360413   0.5327263   0.5327263   0.5333965   0.5333965
   0.5390833   0.5390833   0.5415883   0.5415883   0.5233788   0.5233788
   0.5334448   0.5334448   0.5322661   0.5322661   0.5321487   0.5321487
   0.5333317   0.5333317   0.5329819   0.5329819   0.5313284   0.5313284
   0.5304758   0.5304758   0.5341613   0.5341613   0.5312802   0.5312802
 TTTTTTTTTTTTTTTTTTTTTTTTTTTTTT MOQGAD      TELAPSE      106.75 TCPU      106.18
 TTTTTTTTTTTTTTTTTTTTTTTTTTTTTT SHELLXN     TELAPSE      119.95 TCPU      119.38
 TTTTTTTTTTTTTTTTTTTTTTTTTTTTTT MONMO3      TELAPSE      122.32 TCPU      121.76
 NUMERICALLY INTEGRATED DENSITY    180.0000114706
 TTTTTTTTTTTTTTTTTTTTTTTTTTTTTT NUMDFT      TELAPSE      124.49 TCPU      123.92
 CYC   5 ETOT(AU) -1.373358483351E+03 DETOT -6.77E-06 tst  1.69E-07 PX  1.78E-03
 TTTTTTTTTTTTTTTTTTTTTTTTTTTTTT DIIS        TELAPSE      124.50 TCPU      123.93
 DIIS TEST: 0.57175E-04 AT SCF   CYCLE   5 - DIIS ACTIVE - HISTORY:     5 CYCLES
 TTTTTTTTTTTTTTTTTTTTTTTTTTTTTT FDIK        TELAPSE      124.51 TCPU      123.94
 INSULATING STATE
 TOP OF VALENCE BANDS -    BAND     90; K    2; EIG -3.5679358E-01 AU
 TOP OF VALENCE BANDS -    BAND     90; K    1; EIG -3.5857271E-01 AU
 BOTTOM OF VIRTUAL BANDS - BAND     91; K    1; EIG -1.5774085E-02 AU
 INDIRECT ENERGY BAND GAP:   9.2796 eV
 TTTTTTTTTTTTTTTTTTTTTTTTTTTTTT PDIG        TELAPSE      124.52 TCPU      123.94
 CHARGE NORMALIZATION FACTOR   1.00000000
 TOTAL ATOMIC CHARGES:
   8.9316557   8.9316557   8.9376085   8.9376085   8.9364983   8.9364983
   8.9218405   8.9218405   8.9365791   8.9365791   8.9331446   8.9331446
   8.9359893   8.9359893   8.9326686   8.9326686   8.9349506   8.9349506
   0.5380267   0.5380267   0.5284987   0.5284987   0.5349267   0.5349267
   0.5363189   0.5363189   0.5326456   0.5326456   0.5333795   0.5333795
   0.5398243   0.5398243   0.5421091   0.5421091   0.5231689   0.5231689
   0.5331426   0.5331426   0.5320738   0.5320738   0.5319201   0.5319201
   0.5332085   0.5332085   0.5327946   0.5327946   0.5311955   0.5311955
   0.5303191   0.5303191   0.5341973   0.5341973   0.5313149   0.5313149
 TTTTTTTTTTTTTTTTTTTTTTTTTTTTTT MOQGAD      TELAPSE      124.52 TCPU      123.95
 TTTTTTTTTTTTTTTTTTTTTTTTTTTTTT SHELLXN     TELAPSE      137.71 TCPU      137.13
 TTTTTTTTTTTTTTTTTTTTTTTTTTTTTT MONMO3      TELAPSE      140.06 TCPU      139.49
 NUMERICALLY INTEGRATED DENSITY    180.0000114715
 TTTTTTTTTTTTTTTTTTTTTTTTTTTTTT NUMDFT      TELAPSE      142.20 TCPU      141.63
 CYC   6 ETOT(AU) -1.373358494802E+03 DETOT -1.15E-05 tst  5.63E-08 PX  1.02E-03
 TTTTTTTTTTTTTTTTTTTTTTTTTTTTTT DIIS        TELAPSE      142.21 TCPU      141.64
 DIIS TEST: 0.41850E-05 AT SCF   CYCLE   6 - DIIS ACTIVE - HISTORY:     6 CYCLES
 TTTTTTTTTTTTTTTTTTTTTTTTTTTTTT FDIK        TELAPSE      142.24 TCPU      141.65
 INSULATING STATE
 TOP OF VALENCE BANDS -    BAND     90; K    2; EIG -3.5679667E-01 AU
 TOP OF VALENCE BANDS -    BAND     90; K    1; EIG -3.5857258E-01 AU
 BOTTOM OF VIRTUAL BANDS - BAND     91; K    1; EIG -1.5761652E-02 AU
 INDIRECT ENERGY BAND GAP:   9.2800 eV
 TTTTTTTTTTTTTTTTTTTTTTTTTTTTTT PDIG        TELAPSE      142.25 TCPU      141.65
 CHARGE NORMALIZATION FACTOR   1.00000000
 TOTAL ATOMIC CHARGES:
   8.9315485   8.9315485   8.9376961   8.9376961   8.9365110   8.9365110
   8.9221487   8.9221487   8.9361174   8.9361174   8.9330336   8.9330336
   8.9359388   8.9359388   8.9325838   8.9325838   8.9349875   8.9349875
   0.5380355   0.5380355   0.5285697   0.5285697   0.5349261   0.5349261
   0.5363078   0.5363078   0.5326603   0.5326603   0.5333792   0.5333792
   0.5397491   0.5397491   0.5420690   0.5420690   0.5232821   0.5232821
   0.5332579   0.5332579   0.5321008   0.5321008   0.5319594   0.5319594
   0.5332236   0.5332236   0.5328254   0.5328254   0.5312176   0.5312176
   0.5303498   0.5303498   0.5341978   0.5341978   0.5313235   0.5313235
 TTTTTTTTTTTTTTTTTTTTTTTTTTTTTT MOQGAD      TELAPSE      142.25 TCPU      141.66
 TTTTTTTTTTTTTTTTTTTTTTTTTTTTTT SHELLXN     TELAPSE      155.45 TCPU      154.85
 TTTTTTTTTTTTTTTTTTTTTTTTTTTTTT MONMO3      TELAPSE      157.81 TCPU      157.22
 NUMERICALLY INTEGRATED DENSITY    180.0000114704
 TTTTTTTTTTTTTTTTTTTTTTTTTTTTTT NUMDFT      TELAPSE      159.95 TCPU      159.36
 CYC   7 ETOT(AU) -1.373358495634E+03 DETOT -8.32E-07 tst  1.88E-09 PX  2.00E-04
 TTTTTTTTTTTTTTTTTTTTTTTTTTTTTT DIIS        TELAPSE      159.96 TCPU      159.37
 DIIS TEST: 0.23166E-06 AT SCF   CYCLE   7 - DIIS ACTIVE - HISTORY:     7 CYCLES
 TTTTTTTTTTTTTTTTTTTTTTTTTTTTTT FDIK        TELAPSE      159.98 TCPU      159.38
 INSULATING STATE
 TOP OF VALENCE BANDS -    BAND     90; K    2; EIG -3.5677892E-01 AU
 TOP OF VALENCE BANDS -    BAND     90; K    1; EIG -3.5857043E-01 AU
 BOTTOM OF VIRTUAL BANDS - BAND     91; K    1; EIG -1.5760849E-02 AU
 INDIRECT ENERGY BAND GAP:   9.2796 eV
 TTTTTTTTTTTTTTTTTTTTTTTTTTTTTT PDIG        TELAPSE      159.98 TCPU      159.38
 CHARGE NORMALIZATION FACTOR   1.00000000
 TOTAL ATOMIC CHARGES:
   8.9315642   8.9315642   8.9377381   8.9377381   8.9364355   8.9364355
   8.9221350   8.9221350   8.9363208   8.9363208   8.9329841   8.9329841
   8.9358859   8.9358859   8.9325415   8.9325415   8.9349521   8.9349521
   0.5380298   0.5380298   0.5285483   0.5285483   0.5349145   0.5349145
   0.5362976   0.5362976   0.5326878   0.5326878   0.5334094   0.5334094
   0.5397363   0.5397363   0.5420522   0.5420522   0.5232146   0.5232146
   0.5331928   0.5331928   0.5321265   0.5321265   0.5319840   0.5319840
   0.5332494   0.5332494   0.5328461   0.5328461   0.5312392   0.5312392
   0.5303659   0.5303659   0.5342133   0.5342133   0.5313352   0.5313352
 TTTTTTTTTTTTTTTTTTTTTTTTTTTTTT MOQGAD      TELAPSE      159.99 TCPU      159.39
 TTTTTTTTTTTTTTTTTTTTTTTTTTTTTT SHELLXN     TELAPSE      173.18 TCPU      172.58
 +++ ENERGIES IN A.U. +++
 ::: EXT EL-POLE                                  -1.4275197411882E+03
 ::: EXT EL-SPHEROPOLE                             1.6993378377755E+01
 ::: BIELET ZONE E-E                               1.7904806710193E+03
 ::: TOTAL E-E                                     3.7995430820892E+02
 ::: TOTAL E-N + N-E                              -2.7508530265683E+03
 ::: TOTAL N-N                                    -2.6409826063260E+02
 ::: KINETIC ENERGY                                1.3646554389760E+03
 ::: PSEUDO TOTAL   ENERGY                        -1.2703415400160E+03
 ::: VIRIAL COEFFICIENT                            1.0357927920646E+00
 TTTTTTTTTTTTTTTTTTTTTTTTTTTTTT MONMO3      TELAPSE      175.54 TCPU      174.94
 NUMERICALLY INTEGRATED DENSITY    180.0000114710
 TTTTTTTTTTTTTTTTTTTTTTTTTTTTTT NUMDFT      TELAPSE      177.66 TCPU      177.06
 CYC   8 ETOT(AU) -1.373358495650E+03 DETOT -1.59E-08 tst  3.19E-10 PX  2.00E-04

 == SCF ENDED - CONVERGENCE ON ENERGY      E(AU) -1.3733584956499E+03 CYCLES   8


 ENERGY EXPRESSION=HARTREE+FOCK EXCH*0.00000+(HSE-3c     EXCH)*1.00000+PBEh-3c    CORR


 TOTAL ENERGY(DFT)(AU)(  8) -1.3733584956499E+03 DE-1.6E-08 tester 3.2E-10
 TTTTTTTTTTTTTTTTTTTTTTTTTTTTTT EDFT        TELAPSE      177.66 TCPU      177.06
 
 INFORMATION **** DFTD3 ENERGY **** CALCULATE DFTD3 ENERGY

           DFT-D V3(BJ)
 DF                                         hse3c     
 parameters
 s6       :    1.0000
 s8       :    0.0000
 a1       :    0.4411
 a2       :    4.5182
 k1 k3    :   16.0000   -4.0000
 Cutoff   :   50.2022
 CN-Cutoff:   21.1671
 
 Edisp /kcal,au:   -33.5744 -0.05350418

 E6    /kcal :   -36.0828
 E8    /kcal :     0.0000
 E6(ABC) "   :   2.508448
 
 INFORMATION **** DFTD3 ENERGY **** NORMAL TERMINATION OF DFTD3 MODULE

 GCP ENERGY CALCULATION
  level           hse3c               basis:hse3c
  Nbf            342
  Atoms           54

  Parameters: 
  sigma     1.0000
  eta       1.4086
  alpha     0.2908
  beta      1.9526

  dmp_scal      4.0000
  dmp_exp       6.0000
 cutoffs: 
   distance [bohr] 60.0
   noise    [a.u.] 2.2E-16
 SR-damping   T
 ** gCP correction **
  Egcp:        0.2381819199 / (a.u.) ||     149.4614 / (kcal/mol)
 INFORMATION **** GCP **** NORMAL TERMINATION OF GCP MODULE

 *******************************************************************************

 DFT-D3-GCP DISPERSION AND COUNTERPOISE CORRECTION

 D3 DISPERSION ENERGY (AU)      -5.3504178135521E-02
 GCP ENERGY (AU)                 2.3818191988936E-01
 TOTAL ENERGY + DISP + GCP (AU) -1.3731738179081E+03

 *******************************************************************************

 EIGENVECTORS IN FORTRAN UNIT  8
 TTTTTTTTTTTTTTTTTTTTTTTTTTTTTT END         TELAPSE      179.58 TCPU      178.95
 EEEEEEEEEE TERMINATION  DATE 25 03 2019 TIME 17:55:40.1
NODE    0 CPU TIME =       178.953
NODE    1 CPU TIME =       178.865
NODE    2 CPU TIME =       174.342
NODE    3 CPU TIME =       178.926
NODE    4 CPU TIME =       175.017
NODE    5 CPU TIME =       178.961
NODE    6 CPU TIME =       178.015
NODE    7 CPU TIME =       175.243
    TOTAL CPU TIME =      1418.322
