 PROCESS            4  OF            8  WORKING
 PROCESS            1  OF            8  WORKING
 PROCESS            7  OF            8  WORKING
 PROCESS            2  OF            8  WORKING
 PROCESS            3  OF            8  WORKING
 PROCESS            5  OF            8  WORKING
 PROCESS            0  OF            8  WORKING
 PROCESS            6  OF            8  WORKING

         
 *******************************************************************************
 *                                                                             *
 *                               CRYSTAL17                                     *
 *                      public : 1.0.1 - Feb 1st, 2017                         *
 *                       HTTP://WWW.CRYSTAL.UNITO.IT                           *
 *                                                                             *
 *                              MAIN AUTHORS                                   *
 *                                                                             *
 *  R. DOVESI(1,11), V.R. SAUNDERS(2), C. ROETTI(1,11), R. ORLANDO(1,11),      *
 *  C.M. ZICOVICH-WILSON(1,3), F. PASCALE(4), B. CIVALLERI(1,11),              *
 *  K. DOLL(5), N.M. HARRISON(2,6), I.J. BUSH(7), Ph. D'ARCO(8),               *
 *  M. LLUNELL(9), M. CAUSA'(10), Y. NOEL(8), L. MASCHIO(1,11), A. ERBA(1,11)  *
 *  M. RE'RAT(14), S. CASASSA(1,11)                                            *
 *                                                                             *
 *        CONTRIBUTIONS TO THE CODE HAVE ALSO BEEN GIVEN BY                    *
 *                                                                             *
 *  M. FERRABONE(1,11), M. DE LA PIERRE(1,11), M. FERRERO(1,11),               *
 *  J. BAIMA(1,11), E. ALBANESE(1,11), M.F. PEINTINGER(12), R. BAST(13),       *
 *  B. KIRTMAN(15), V. LACIVITA(1,11), R. DEMICHELIS(1,16)                     *
 *  G. BRANDEBURG(17), S. SALUSTRO(1,11), G. SANSONE(1,11)                     *
 *  M.T. RUGGIERO(18)                                                          *
 *                                                                             *
 * (1) THEORETICAL CHEMISTRY GROUP - UNIVERSITA' DI TORINO - TORINO (ITALY)    *

 * (2) COMPUTATIONAL SCIENCE & ENGINEERING DEPARTMENT - STFC DARESBURY (UK)    *
 * (3) UNIVERSIDAD AUTONOMA DEL ESTADO DE MORELOS - CUERNAVACA (MEXICO)        *
 * (4) UNIVERSITE' DE LORRAINE - NANCY (FRANCE)                                *
 * (5) UNIVERSITAET STUTTGART- STUTTGART (GERMANY)                             *
 * (6) IMPERIAL COLLEGE - LONDON (UK)                                          *
 * (7) OXFORD E-RESEARCH CENTRE - OXFORD (UK)                                  *
 * (8) UPMC - SORBONNE UNIVERSITES - PARIS (FRANCE)                            *
 * (9) UNIVERSIDAD DE BARCELONA - BARCELONA (SPAIN)                            *
 *(10) UNIVERSITA' DI NAPOLI "FEDERICO II" - NAPOLI (ITALY)                    *
 *(11) NIS - NANOSTRUCTURED INTERFACES AND SURFACES - TORINO (ITALY)           *
 *(12) MPI FUER CHEMISCHE ENERGIEKONVERSION - MUELHEIM AN DER RUHR (GERMANY)   *
 *(13) UNIVERSITY OF TROMSO - TROMSO (NORWAY)                                  *
 *(14) UNIVERSITE' DE PAU ET DES PAYS DE L'ADOUR - PAU (FRANCE)                *
 *(15) UNIVERSITY OF CALIFORNIA SANTA BARBARA - SANTA BARBARA (USA)            *
 *(16) CURTIN UNIVERSITY - PERTH (AUSTRALIA)                                   *
 *(17) UNIVERSITY COLLEGE LONDON - LONDON (UK)                                 *
 *(18) CAMBRIDGE UNIVERSITY - CAMBRIDGE (UK)                                   *
 *                                                                             *
 *******************************************************************************
 EEEEEEEEEE STARTING  DATE 25 03 2019 TIME 17:48:27.3
 !drive by JGB                                                                   

 CRYSTAL CALCULATION
 (INPUT ACCORDING TO THE INTERNATIONAL TABLES FOR X-RAY CRYSTALLOGRAPHY)
 CRYSTAL FAMILY                       :  MONOCLINIC  
 CRYSTAL CLASS  (GROTH - 1921)        :  MONOCLINIC DOMATIC                   

 SPACE GROUP (NONCENTROSYMMETRIC)     :  P C             

 LATTICE PARAMETERS  (ANGSTROMS AND DEGREES) - CONVENTIONAL CELL
        A           B           C        ALPHA        BETA       GAMMA
     7.56577     3.54587     5.27332    90.00000   109.00649    90.00000


 NUMBER OF IRREDUCIBLE ATOMS IN THE CONVENTIONAL CELL:    9

 INPUT COORDINATES

 ATOM AT. N.              COORDINATES
   1   8     3.238279520106E-01  2.268859175275E-01  4.037119034035E-01
   2   8     6.564062355561E-01  7.636017519444E-01  5.439126928626E-01
   3   8     9.893037898254E-01  2.298714745807E-01  7.187654845539E-01
   4   1     4.368228512602E-01  7.339601188576E-02  4.526787564882E-01
   5   1     3.320477298876E-01  3.893002614856E-01  2.609918546607E-01
   6   1     6.636826704413E-01  5.985257906916E-01  6.927765041728E-01
   7   1     7.698713469331E-01  9.154647812822E-01  6.018593495925E-01
   8   1     1.035886136028E-01  8.040168736134E-02  7.741646321020E-01
   9   1     9.970188104829E-01  3.852717451302E-01  5.723288221637E-01

 *******************************************************************************

 << INFORMATION >>: FROM NOW ON, ALL COORDINATES REFER TO THE PRIMITIVE CELL

 *******************************************************************************

 LATTICE PARAMETERS  (ANGSTROMS AND DEGREES) - PRIMITIVE CELL
       A          B          C        ALPHA      BETA     GAMMA        VOLUME
    7.56577    3.54587    5.27332    90.00000 109.00649  90.00000    133.755950

 COORDINATES OF THE EQUIVALENT ATOMS (FRACTIONAL UNITS)

 N. ATOM EQUIV AT. N.          X                  Y                  Z

   1   1   1    8 O     3.23827952011E-01  2.26885917528E-01  4.03711903403E-01
   2   1   2    8 O     3.23827952011E-01 -2.26885917528E-01 -9.62880965965E-02

   3   2   1    8 O    -3.43593764444E-01 -2.36398248056E-01 -4.56087307137E-01
   4   2   2    8 O    -3.43593764444E-01  2.36398248056E-01  4.39126928626E-02

   5   3   1    8 O    -1.06962101746E-02  2.29871474581E-01 -2.81234515446E-01
   6   3   2    8 O    -1.06962101746E-02 -2.29871474581E-01  2.18765484554E-01

   7   4   1    1 H     4.36822851260E-01  7.33960118858E-02  4.52678756488E-01
   8   4   2    1 H     4.36822851260E-01 -7.33960118858E-02 -4.73212435118E-02

   9   5   1    1 H     3.32047729888E-01  3.89300261486E-01  2.60991854661E-01
  10   5   2    1 H     3.32047729888E-01 -3.89300261486E-01 -2.39008145339E-01

  11   6   1    1 H    -3.36317329559E-01 -4.01474209308E-01 -3.07223495827E-01
  12   6   2    1 H    -3.36317329559E-01  4.01474209308E-01  1.92776504173E-01

  13   7   1    1 H    -2.30128653067E-01 -8.45352187178E-02 -3.98140650408E-01
  14   7   2    1 H    -2.30128653067E-01  8.45352187178E-02  1.01859349592E-01

  15   8   1    1 H     1.03588613603E-01  8.04016873613E-02 -2.25835367898E-01
  16   8   2    1 H     1.03588613603E-01 -8.04016873613E-02  2.74164632102E-01

  17   9   1    1 H    -2.98118951709E-03  3.85271745130E-01 -4.27671177836E-01
  18   9   2    1 H    -2.98118951709E-03 -3.85271745130E-01  7.23288221637E-02

 NUMBER OF SYMMETRY OPERATORS         :    2
 *******************************************************************************
 * GEOMETRY EDITING - INPUT COORDINATES ARE GIVEN IN ANGSTROM         
 *******************************************************************************

 GEOMETRY NOW FULLY CONSISTENT WITH THE GROUP

 GCALCO - MAX INDICES DIRECT LATTICE VECTOR    10    21    15
 NO.OF VECTORS CREATED 6999 STARS 1836 RMAX   114.69725 BOHR

 GEOMETRY FOR WAVE FUNCTION - DIMENSIONALITY OF THE SYSTEM    3
 (NON PERIODIC DIRECTION: LATTICE PARAMETER FORMALLY SET TO 500)
 *******************************************************************************
 LATTICE PARAMETERS (ANGSTROMS AND DEGREES) - BOHR = 0.5291772083 ANGSTROM
 PRIMITIVE CELL - CENTRING CODE 1/0 VOLUME=   133.755950 - DENSITY  1.342 g/cm^3
         A              B              C           ALPHA      BETA       GAMMA 
     7.56577142     3.54587188     5.27331531    90.000000 109.006494  90.000000
 *******************************************************************************
 ATOMS IN THE ASYMMETRIC UNIT    9 - ATOMS IN THE UNIT CELL:   18
     ATOM                 X/A                 Y/B                 Z/C    
 *******************************************************************************
      1 T   8 O     3.238279520106E-01  2.268859175275E-01  4.037119034035E-01
      2 F   8 O     3.238279520106E-01 -2.268859175275E-01 -9.628809659650E-02
      3 T   8 O    -3.435937644439E-01 -2.363982480556E-01 -4.560873071374E-01
      4 F   8 O    -3.435937644439E-01  2.363982480556E-01  4.391269286260E-02
      5 T   8 O    -1.069621017457E-02  2.298714745807E-01 -2.812345154461E-01
      6 F   8 O    -1.069621017457E-02 -2.298714745807E-01  2.187654845539E-01
      7 T   1 H     4.368228512602E-01  7.339601188576E-02  4.526787564882E-01
      8 F   1 H     4.368228512602E-01 -7.339601188576E-02 -4.732124351180E-02
      9 T   1 H     3.320477298876E-01  3.893002614856E-01  2.609918546607E-01
     10 F   1 H     3.320477298876E-01 -3.893002614856E-01 -2.390081453393E-01
     11 T   1 H    -3.363173295587E-01 -4.014742093084E-01 -3.072234958272E-01
     12 F   1 H    -3.363173295587E-01  4.014742093084E-01  1.927765041728E-01
     13 T   1 H    -2.301286530669E-01 -8.453521871776E-02 -3.981406504075E-01
     14 F   1 H    -2.301286530669E-01  8.453521871776E-02  1.018593495925E-01
     15 T   1 H     1.035886136028E-01  8.040168736134E-02 -2.258353678980E-01
     16 F   1 H     1.035886136028E-01 -8.040168736134E-02  2.741646321020E-01
     17 T   1 H    -2.981189517087E-03  3.852717451302E-01 -4.276711778363E-01
     18 F   1 H    -2.981189517087E-03 -3.852717451302E-01  7.232882216370E-02

 T = ATOM BELONGING TO THE ASYMMETRIC UNIT

 ****    2 SYMMOPS - TRANSLATORS IN FRACTIONAL UNITS
 **** MATRICES AND TRANSLATORS IN THE CRYSTALLOGRAPHIC REFERENCE FRAME
   V INV                    ROTATION MATRICES                   TRANSLATORS
   1   1  1.00  0.00  0.00  0.00  1.00  0.00  0.00  0.00  1.00  0.00  0.00  0.00
   2   2  1.00  0.00  0.00  0.00 -1.00 -0.00  0.00  0.00  1.00  0.00  0.00  0.50

 DIRECT LATTICE VECTORS CARTESIAN COMPONENTS (ANGSTROM)
          X                    Y                    Z
   0.756577142000E+01   0.463269887629E-15   0.000000000000E+00
   0.000000000000E+00   0.354587188000E+01   0.000000000000E+00
  -0.171738864594E+01   0.322897435764E-15   0.498582296091E+01


 CARTESIAN COORDINATES - PRIMITIVE CELL
 *******************************************************************************
 *      ATOM          X(ANGSTROM)         Y(ANGSTROM)         Z(ANGSTROM)
 *******************************************************************************
    1     8 O     1.756678025185E+00  8.045083949288E-01  2.012836077580E+00
    2     8 O     2.615372348153E+00 -8.045083949288E-01 -4.800754028727E-01
    3     8 O    -1.816272720287E+00 -8.382379002616E-01 -2.273970568103E+00
    4     8 O    -2.674967043255E+00  8.382379002616E-01  2.189409123495E-01
    5     8 O     4.020638824313E-01  8.150947977298E-01 -1.402185504510E+00
    6     8 O    -4.566304405366E-01 -8.150947977298E-01  1.090725975942E+00
    7     1 H     2.527476487018E+00  2.602528546499E-01  2.256976138013E+00
    8     1 H     3.386170809986E+00 -2.602528546499E-01 -2.359353424397E-01
    9     1 H     2.063972776983E+00  1.380408850078E+00  1.301259181577E+00
   10     1 H     2.922667099951E+00 -1.380408850078E+00 -1.191652298876E+00
   11     1 H    -2.016877896528E+00 -1.423576109332E+00 -1.531761959625E+00
   12     1 H    -2.875572219496E+00  1.423576109332E+00  9.611495208278E-01
   13     1 H    -1.057338553801E+00 -2.997510549210E-01 -1.985058796471E+00
   14     1 H    -1.916032876769E+00  2.997510549210E-01  5.078526839812E-01
   15     1 H     1.171574868912E+00  2.850940823191E-01 -1.125975162650E+00
   16     1 H     3.128805459443E-01 -2.850940823191E-01  1.366936317802E+00
   17     1 H     7.119226265641E-01  1.366124247216E+00 -2.132292778174E+00
   18     1 H    -1.467716964038E-01 -1.366124247216E+00  3.606187022790E-01

 *******************************************************************************
 STARTING BASIS SET HANDLING 
 *******************************************************************************

 Loading internal basis set: DEF2-MSVP           

 Please cite in your publication:
 Fully Optimized Contracted Gaussian Basis Sets for Atoms Li to Kr. A. Schäfer, 
 H. Horn and R. Ahlrichs; J. Chem. Phys. 97, 2571 (1992).                       
                                                                                
                    
 S. Grimme, J. G. Brandenburg, C. Bannwarth, and A. Hansen, J. Chem. Phys., 143,
  054107 (2015).                                                                
                                                                                
                    

 *******************************************************************************
 LOCAL ATOMIC FUNCTIONS BASIS SET
 *******************************************************************************
   ATOM   X(AU)   Y(AU)   Z(AU)  N. TYPE  EXPONENT  S COEF   P COEF   D/F/G COEF
 *******************************************************************************
   1 O    3.320   1.520   3.804
                                  1 S  
                                         6.773E+03 1.727E-03 0.000E+00 0.000E+00
                                         1.017E+03 1.325E-02 0.000E+00 0.000E+00
                                         2.313E+02 6.603E-02 0.000E+00 0.000E+00
                                         6.501E+01 2.353E-01 0.000E+00 0.000E+00
                                         2.050E+01 5.498E-01 0.000E+00 0.000E+00
                                  2 S  
                                         6.716E+00 1.000E+00 0.000E+00 0.000E+00
                                  3 S  
                                         1.147E+00 1.000E+00 0.000E+00 0.000E+00
                                  4 S  
                                         3.342E-01 1.000E+00 0.000E+00 0.000E+00
                           5-     7 P  
                                         1.769E+01 0.000E+00 4.359E-02 0.000E+00
                                         3.854E+00 0.000E+00 2.318E-01 0.000E+00
                                         1.047E+00 0.000E+00 5.146E-01 0.000E+00
                           8-    10 P  
                                         2.759E-01 0.000E+00 1.000E+00 0.000E+00
                          11-    15 D  
                                         8.000E-01 0.000E+00 0.000E+00 1.000E+00
   2 O    4.942  -1.520  -0.907
   3 O   -3.432  -1.584  -4.297
   4 O   -5.055   1.584   0.414
   5 O    0.760   1.540  -2.650
   6 O   -0.863  -1.540   2.061
   7 H    4.776   0.492   4.265
                                 91 S  
                                         1.874E+01 1.968E-02 0.000E+00 0.000E+00
                                         2.826E+00 1.380E-01 0.000E+00 0.000E+00
                                         6.401E-01 4.783E-01 0.000E+00 0.000E+00
                                 92 S  
                                         1.756E-01 1.000E+00 0.000E+00 0.000E+00
   8 H    6.399  -0.492  -0.446
   9 H    3.900   2.609   2.459
  10 H    5.523  -2.609  -2.252
  11 H   -3.811  -2.690  -2.895
  12 H   -5.434   2.690   1.816
  13 H   -1.998  -0.566  -3.751
  14 H   -3.621   0.566   0.960
  15 H    2.214   0.539  -2.128
  16 H    0.591  -0.539   2.583
  17 H    1.345   2.582  -4.029
  18 H   -0.277  -2.582   0.681

 *******************************************************************************
 FINISHED BASIS SET HANDLING 
 *******************************************************************************

 INFORMATION **** SET_MPP **** PCRYSTAL CALCULATION
 INFORMATION **** READM2 **** NEW DEFAULT: FOCK/KS MATRIX MIXING SET TO 30 %
 INFORMATION **** READM2 **** NEW DEFAULT: FULL DIRECT SCF MODE
 INFORMATION **** READM2 **** NEW DEFAULT: COULOMB BIPOLAR BUFFER SET TO 32 Mb
 INFORMATION **** READM2 **** NEW DEFAULT: EXCHANGE BIPOLAR BUFFER SET TO 32 Mb

 *******************************************************************************
 NEW DEFAULT: DFT INTEGRATION GRID INCREASED TO XLGRID
 NEW DEFAULT: DIIS ACCELERATOR ACTIVE
 USE KEYWORD NODIIS TO TURN IT OFF
 *******************************************************************************

 INFORMATION **** RDDFTP **** HSE-3c calculation
 INFORMATION **** RDDFTP **** HSE screened hybrid functional combined with D3 and gCP

PLEASE CITE:
(1) HSE-3c Reference
 J. G. Brandenburg, E. Caldeweyer, and S. Grimme, 
 Phys. Chem. Chem. Phys. 18, 15519 (2016)
(2) DFT-D3 Reference
 S. Grimme, J. Antony, S. Ehrlich,
 and H. Krieg, J. Chem. Phys. 132, 154104 (2010)
(3) gCP Reference
 H. Kruse and S. Grimme J. Chem. Phys, 136, 154101 (2012)
 J. G. Brandenburg, M. Alessio, B. Civalleri, M. F. Peintinger
 T. Bredow, and S. Grimme, J. Phys. Chem. A, 117, 9282 (2013) 

 WARNING **** RDDFTP **** HSE3c-HJS ACTIVE
 RANGE SEPARATION - OMEGA:   0.110000000000000     
 WARNING **** RDDFTP **** HSE-3c has to be combined with def2-mSVP basis set
 WARNING **** RDDFTP **** Note: Harmonic frequencies are scaled by 0.95
 WARNING **** RDDFTP **** as recommended in original publication
 INFORMATION **** BIPOSIZE **** COULOMB BIPOLAR BUFFER SET TO    60000000
 INFORMATION **** EXCHSIZE **** EXCHANGE BIPOLAR BUFFER SIZE SET TO    40000000
 *******************************************************************************
 N. OF ATOMS PER CELL        18  COULOMB OVERLAP TOL         (T1) 10**   -6
 NUMBER OF SHELLS            66  COULOMB PENETRATION TOL     (T2) 10**   -6
 NUMBER OF AO               114  EXCHANGE OVERLAP TOL        (T3) 10**   -6
 N. OF ELECTRONS PER CELL    60  EXCHANGE PSEUDO OVP (F(G))  (T4) 10**   -6
 CORE ELECTRONS PER CELL     12  EXCHANGE PSEUDO OVP (P(G))  (T5) 10**  -12
 N. OF SYMMETRY OPERATORS     2  POLE ORDER IN MONO ZONE                  4
 *******************************************************************************
 TYPE OF CALCULATION :  RESTRICTED CLOSED SHELL
 KOHN-SHAM HAMILTONIAN

 (EXCHANGE)[CORRELATION] FUNCTIONAL:(HSE-3c)[PBEh-3c]

 RANGE-SEPARATED HYBRID FUNCTIONAL 
 OMEGA (SHORT-RANGE)[LONG-RANGE]:(    0.1100)[    0.0000]

 HYBRID EXCHANGE - PERCENTAGE OF FOCK EXCHANGE    42.0000

 CAPPA:IS1  2;IS2  3;IS3  2; K PTS MONK NET   8; SYMMOPS:K SPACE   4;G SPACE   2

 *******************************************************************************
 MAX NUMBER OF SCF CYCLES      50  CONVERGENCE ON DELTAP        10**-16
 WEIGHT OF F(I) IN F(I+1)      30% CONVERGENCE ON ENERGY        10**- 6
 S(K) EIGENV. THRESHOLD  10*10.**-4
 SHRINK. FACT.(MONKH.)    2  3  2  NUMBER OF K POINTS IN THE IBZ      8
 SHRINKING FACTOR(GILAT NET)    2  NUMBER OF K POINTS(GILAT NET)      8
 *******************************************************************************
 *** K POINTS COORDINATES (OBLIQUE COORDINATES IN UNITS OF IS =  2)
   1-R(  0  0  0)   2-R(  1  0  0)   3-C(  0  1  0)   4-C(  1  1  0)
   5-R(  0  0  1)   6-R(  1  0  1)   7-C(  0  1  1)   8-C(  1  1  1)

 DIRECT LATTICE VECTORS COMPON. (A.U.)     RECIP. LATTICE VECTORS COMPON. (A.U.) 
        X            Y            Z              X            Y            Z
   14.2972360    0.0000000    0.0000000      0.4394685    0.0000000    0.1513769
    0.0000000    6.7007268    0.0000000     -0.0000000    0.9376871   -0.0000000
   -3.2453942    0.0000000    9.4218399      0.0000000    0.0000000    0.6668746

 DISK SPACE FOR EIGENVECTORS (FTN 10)      155952 REALS

 SYMMETRY ADAPTION OF THE BLOCH FUNCTIONS ENABLED
 TTTTTTTTTTTTTTTTTTTTTTTTTTTTTT gordsh1     TELAPSE        0.16 TCPU        0.05

 MATRIX SIZE: P(G)   79686, F(G)   13786, P(G) IRR   20817, F(G) IRR    7111
 MAX G-VECTOR INDEX FOR 1- AND 2-ELECTRON INTEGRALS 119

 TTTTTTTTTTTTTTTTTTTTTTTTTTTTTT INPUT       TELAPSE        0.17 TCPU        0.05

 NEIGHBORS OF THE NON-EQUIVALENT ATOMS

 N = NUMBER OF NEIGHBORS AT DISTANCE R
    ATOM  N     R/ANG      R/AU   NEIGHBORS (ATOM LABELS AND CELL INDICES)
   1 O    1     0.9656     1.8248    9 H    0 0 0
   1 O    1     0.9747     1.8418    7 H    0 0 0
   1 O    1     1.9207     3.6295   16 H    0 0 0
   1 O    1     2.3085     4.3625   10 H    0 1 1
   1 O    1     2.8493     5.3844   11 H    1 1 1
   1 O    1     2.8713     5.4259   18 H    0 1 0

   3 O    1     0.9663     1.8260   11 H    0 0 0
   3 O    1     0.9744     1.8413   13 H    0 0 0
   3 O    1     1.9177     3.6239    7 H   -1 0-1
   3 O    1     2.2687     4.2872   12 H    0-1-1
   3 O    1     2.7613     5.2181    9 H   -1-1-1
   3 O    1     2.8656     5.4151   17 H    0-1 0

   5 O    1     0.9658     1.8250   17 H    0 0 0
   5 O    1     0.9743     1.8412   15 H    0 0 0
   5 O    1     1.9268     3.6411   13 H    0 0 0
   5 O    1     2.2959     4.3385   18 H    0 1 0
   5 O    1     2.7526     5.2017   11 H    0 1 0
   5 O    1     2.8577     5.4003   18 H    0 0 0

   7 H    1     0.9747     1.8418    1 O    0 0 0
   7 H    1     1.5437     2.9172    9 H    0 0 0
   7 H    1     1.9177     3.6239    3 O    1 0 1
   7 H    1     2.4431     4.6168   11 H    1 0 1
   7 H    1     2.4476     4.6252   13 H    1 0 1
   7 H    1     2.4483     4.6266   16 H    0 0 0

   9 H    1     0.9656     1.8248    1 O    0 0 0
   9 H    1     1.5437     2.9172    7 H    0 0 0
   9 H    1     2.3085     4.3625    2 O    0 1 0
   9 H    1     2.4175     4.5685   16 H    0 0 0
   9 H    1     2.5320     4.7848   18 H    0 1 0
   9 H    1     2.5703     4.8572   16 H    0 1 0

  11 H    1     0.9663     1.8260    3 O    0 0 0
  11 H    1     1.5457     2.9209   13 H    0 0 0
  11 H    1     2.2687     4.2872    4 O    0-1 0
  11 H    1     2.4431     4.6168    7 H   -1 0-1
  11 H    1     2.5692     4.8551    7 H   -1-1-1
  11 H    1     2.6443     4.9971   13 H    0-1 0

  13 H    1     0.9744     1.8413    3 O    0 0 0
  13 H    1     1.5457     2.9209   11 H    0 0 0
  13 H    1     1.9268     3.6411    5 O    0 0 0
  13 H    1     2.4346     4.6007   17 H    0 0 0
  13 H    1     2.4476     4.6252    7 H   -1 0-1
  13 H    1     2.4593     4.6474   15 H    0 0 0

  15 H    1     0.9743     1.8412    5 O    0 0 0
  15 H    1     1.5468     2.9230   17 H    0 0 0
  15 H    1     1.9207     3.6295    2 O    0 0 0
  15 H    1     2.4175     4.5685   10 H    0 0 0
  15 H    1     2.4483     4.6266    8 H    0 0 0
  15 H    1     2.4593     4.6474   13 H    0 0 0

  17 H    1     0.9658     1.8250    5 O    0 0 0
  17 H    1     1.5468     2.9230   15 H    0 0 0
  17 H    1     2.2959     4.3385    6 O    0 1-1
  17 H    1     2.4346     4.6007   13 H    0 0 0
  17 H    1     2.5320     4.7848   10 H    0 1 0
  17 H    1     2.5835     4.8821   16 H    0 0-1


 SYMMETRY ALLOWED INTERNAL DEGREE(S) OF FREEDOM:  25
 TTTTTTTTTTTTTTTTTTTTTTTTTTTTTT SYMM        TELAPSE        1.13 TCPU        0.96
 TTTTTTTTTTTTTTTTTTTTTTTTTTTTTT INT_SCREEN  TELAPSE        1.13 TCPU        0.96

 DFT PARAMETERS

     ATOM       ELECTRONS   NET CHARGE   R(ANGSTROM)
   1   8  O       8.0000      0.0000     0.74000000
   7   1  H       1.0000      0.0000     1.11000000

 SIZE OF GRID=     191415
 TTTTTTTTTTTTTTTTTTTTTTTTTTTTTT MAKE_GRID2  TELAPSE        7.04 TCPU        6.71
 BECKE WEIGHT FUNCTION
 RADSAFE =     2.00
 TOLERANCES - DENSITY:10**- 6; POTENTIAL:10**- 9; GRID WGT:10**-14

 RADIAL INTEGRATION  - INTERVALS (POINTS,UPPER LIMIT):            1( 75,  4.0*R)

 ANGULAR INTEGRATION - INTERVALS (ACCURACY LEVEL [N. POINTS] UPPER LIMIT):
  1(  4[  86]   0.2)  2(  8[ 194]   0.5)  3( 12[ 350]   0.9)  4( 16[ 974]   3.5)
  5( 12[ 350]9999.0)
 TTTTTTTTTTTTTTTTTTTTTTTTTTTTTT INT_CALC    TELAPSE        7.07 TCPU        6.73
 EEEEEEEEEE INT_CALC TERMINATION  DATE 25 03 2019 TIME 17:48:34.3

 *******************************************************************************
 !drive by JGB                                                                   
 CRYSTAL - SCF - TYPE OF CALCULATION :  RESTRICTED CLOSED SHELL
 *******************************************************************************

 CAPPA:IS1  2;IS2  3;IS3  2; K PTS MONK NET   8; SYMMOPS:K SPACE   4;G SPACE   2

 TTTTTTTTTTTTTTTTTTTTTTTTTTTTTT SDIK        TELAPSE        7.38 TCPU        6.77

 AAAAAAAAAAAAAAAAAAAAAAAAAAAAAAAAAAAAAAAAAAAAAAAAAAAAAAAAAAAAAAAAAAAAAAAAAAAAAAA
         ATOMIC WAVEFUNCTION(S)


 NUCLEAR CHARGE  8.0  SYMMETRY SPECIES            S    P
 N. ELECTRONS    8.0  NUMBER OF PRIMITIVE GTOS    8    4
                      NUMBER OF CONTRACTED GTOS   4    2
                      NUMBER OF CLOSED SHELLS     2    0
                      OPEN SHELL OCCUPATION       0    4

  ZNUC SCFIT  TOTAL HF ENERGY   KINETIC ENERGY   VIRIAL THEOREM ACCURACY
   8.0  12   -7.477373220E+01  7.477365593E+01 -2.000001020E+00  3.8E-06

 NUCLEAR CHARGE  1.0  SYMMETRY SPECIES            S
 N. ELECTRONS    1.0  NUMBER OF PRIMITIVE GTOS    4
                      NUMBER OF CONTRACTED GTOS   2
                      NUMBER OF CLOSED SHELLS     0
                      OPEN SHELL OCCUPATION       1

  ZNUC SCFIT  TOTAL HF ENERGY   KINETIC ENERGY   VIRIAL THEOREM ACCURACY
   1.0   1   -4.977266687E-01  5.190767460E-01 -1.958869132E+00  1.8E-16

 AAAAAAAAAAAAAAAAAAAAAAAAAAAAAAAAAAAAAAAAAAAAAAAAAAAAAAAAAAAAAAAAAAAAAAAAAAAAAAA

 CHARGE NORMALIZATION FACTOR   1.00000000
 TOTAL ATOMIC CHARGES:
   8.0000000   8.0000000   8.0000000   8.0000000   8.0000000   8.0000000
   1.0000000   1.0000000   1.0000000   1.0000000   1.0000000   1.0000000
   1.0000000   1.0000000   1.0000000   1.0000000   1.0000000   1.0000000
 TTTTTTTTTTTTTTTTTTTTTTTTTTTTTT MOQGAD      TELAPSE        7.38 TCPU        6.77
 TTTTTTTTTTTTTTTTTTTTTTTTTTTTTT SHELLXN     TELAPSE       14.75 TCPU       14.10
 TTTTTTTTTTTTTTTTTTTTTTTTTTTTTT MONMO3      TELAPSE       15.31 TCPU       14.66
 NUMERICALLY INTEGRATED DENSITY     59.9999901297
 TTTTTTTTTTTTTTTTTTTTTTTTTTTTTT NUMDFT      TELAPSE       15.68 TCPU       15.03
 CYC   0 ETOT(AU) -4.577247333630E+02 DETOT -4.58E+02 tst  0.00E+00 PX  1.00E+00
 TTTTTTTTTTTTTTTTTTTTTTTTTTTTTT DIIS        TELAPSE       15.69 TCPU       15.03
 TTTTTTTTTTTTTTTTTTTTTTTTTTTTTT FDIK        TELAPSE       16.09 TCPU       15.27
 INSULATING STATE
 TOP OF VALENCE BANDS -    BAND     30; K    2; EIG -4.1485932E-01 AU
 TOP OF VALENCE BANDS -    BAND     30; K    1; EIG -4.1673954E-01 AU
 BOTTOM OF VIRTUAL BANDS - BAND     31; K    1; EIG -1.1871041E-01 AU
 INDIRECT ENERGY BAND GAP:   8.0586 eV
 TTTTTTTTTTTTTTTTTTTTTTTTTTTTTT PDIG        TELAPSE       16.10 TCPU       15.27
 CHARGE NORMALIZATION FACTOR   1.00000000
 TOTAL ATOMIC CHARGES:
   9.0608987   9.0608987   9.0612331   9.0612331   9.0619452   9.0619452
   0.4676973   0.4676973   0.4710395   0.4710395   0.4706561   0.4706561
   0.4675915   0.4675915   0.4678892   0.4678892   0.4710492   0.4710492
 TTTTTTTTTTTTTTTTTTTTTTTTTTTTTT MOQGAD      TELAPSE       16.10 TCPU       15.28
 TTTTTTTTTTTTTTTTTTTTTTTTTTTTTT SHELLXN     TELAPSE       23.62 TCPU       22.76
 TTTTTTTTTTTTTTTTTTTTTTTTTTTTTT MONMO3      TELAPSE       24.20 TCPU       23.33
 NUMERICALLY INTEGRATED DENSITY     59.9999956015
 TTTTTTTTTTTTTTTTTTTTTTTTTTTTTT NUMDFT      TELAPSE       25.10 TCPU       24.23
 CYC   1 ETOT(AU) -4.575661458595E+02 DETOT  1.59E-01 tst  0.00E+00 PX  1.00E+00
 TTTTTTTTTTTTTTTTTTTTTTTTTTTTTT DIIS        TELAPSE       25.14 TCPU       24.28
 DIIS TEST: 0.73237E+00 AT SCF   CYCLE   1 - MIX   30 %
 TTTTTTTTTTTTTTTTTTTTTTTTTTTTTT FDIK        TELAPSE       25.16 TCPU       24.29
 INSULATING STATE
 TOP OF VALENCE BANDS -    BAND     30; K    2; EIG -3.1537219E-01 AU
 TOP OF VALENCE BANDS -    BAND     30; K    1; EIG -3.1881748E-01 AU
 BOTTOM OF VIRTUAL BANDS - BAND     31; K    1; EIG -5.8573765E-02 AU
 INDIRECT ENERGY BAND GAP:   6.9878 eV
 TTTTTTTTTTTTTTTTTTTTTTTTTTTTTT PDIG        TELAPSE       25.16 TCPU       24.30
 CHARGE NORMALIZATION FACTOR   1.00000000
 TOTAL ATOMIC CHARGES:
   8.8143544   8.8143544   8.8167632   8.8167632   8.8150139   8.8150139
   0.5852533   0.5852533   0.5999494   0.5999494   0.5980887   0.5980887
   0.5848520   0.5848520   0.5861064   0.5861064   0.5996187   0.5996187
 TTTTTTTTTTTTTTTTTTTTTTTTTTTTTT MOQGAD      TELAPSE       25.17 TCPU       24.30
 TTTTTTTTTTTTTTTTTTTTTTTTTTTTTT SHELLXN     TELAPSE       32.68 TCPU       31.78
 TTTTTTTTTTTTTTTTTTTTTTTTTTTTTT MONMO3      TELAPSE       33.29 TCPU       32.37
 NUMERICALLY INTEGRATED DENSITY     59.9999920563
 TTTTTTTTTTTTTTTTTTTTTTTTTTTTTT NUMDFT      TELAPSE       34.16 TCPU       33.25
 CYC   2 ETOT(AU) -4.577073204775E+02 DETOT -1.41E-01 tst  3.99E-03 PX  1.31E-01
 TTTTTTTTTTTTTTTTTTTTTTTTTTTTTT DIIS        TELAPSE       34.17 TCPU       33.25
 DIIS TEST: 0.17611E+00 AT SCF   CYCLE   2 - DIIS ACTIVE - HISTORY:     2 CYCLES
 TTTTTTTTTTTTTTTTTTTTTTTTTTTTTT FDIK        TELAPSE       34.21 TCPU       33.26
 INSULATING STATE
 TOP OF VALENCE BANDS -    BAND     30; K    2; EIG -3.6949879E-01 AU
 TOP OF VALENCE BANDS -    BAND     30; K    1; EIG -3.7260488E-01 AU
 BOTTOM OF VIRTUAL BANDS - BAND     31; K    1; EIG -6.4914119E-02 AU
 INDIRECT ENERGY BAND GAP:   8.2882 eV
 TTTTTTTTTTTTTTTTTTTTTTTTTTTTTT PDIG        TELAPSE       34.21 TCPU       33.27
 CHARGE NORMALIZATION FACTOR   1.00000000
 TOTAL ATOMIC CHARGES:
   8.8984696   8.8984696   8.9002168   8.9002168   8.8993151   8.8993151
   0.5425809   0.5425809   0.5587747   0.5587747   0.5569372   0.5569372
   0.5423184   0.5423184   0.5430913   0.5430913   0.5582959   0.5582959
 TTTTTTTTTTTTTTTTTTTTTTTTTTTTTT MOQGAD      TELAPSE       34.21 TCPU       33.27
 TTTTTTTTTTTTTTTTTTTTTTTTTTTTTT SHELLXN     TELAPSE       41.80 TCPU       40.76
 TTTTTTTTTTTTTTTTTTTTTTTTTTTTTT MONMO3      TELAPSE       42.29 TCPU       41.24
 NUMERICALLY INTEGRATED DENSITY     59.9999935507
 TTTTTTTTTTTTTTTTTTTTTTTTTTTTTT NUMDFT      TELAPSE       43.19 TCPU       42.14
 CYC   3 ETOT(AU) -4.577543486984E+02 DETOT -4.70E-02 tst  3.77E-04 PX  4.65E-02
 TTTTTTTTTTTTTTTTTTTTTTTTTTTTTT DIIS        TELAPSE       43.20 TCPU       42.14
 DIIS TEST: 0.10412E-02 AT SCF   CYCLE   3 - DIIS ACTIVE - HISTORY:     3 CYCLES
 TTTTTTTTTTTTTTTTTTTTTTTTTTTTTT FDIK        TELAPSE       43.21 TCPU       42.16
 INSULATING STATE
 TOP OF VALENCE BANDS -    BAND     30; K    2; EIG -3.6611795E-01 AU
 TOP OF VALENCE BANDS -    BAND     30; K    1; EIG -3.6912114E-01 AU
 BOTTOM OF VIRTUAL BANDS - BAND     31; K    1; EIG -6.1348256E-02 AU
 INDIRECT ENERGY BAND GAP:   8.2932 eV
 TTTTTTTTTTTTTTTTTTTTTTTTTTTTTT PDIG        TELAPSE       43.22 TCPU       42.16
 CHARGE NORMALIZATION FACTOR   1.00000000
 TOTAL ATOMIC CHARGES:
   8.8933119   8.8933119   8.8955765   8.8955765   8.8941071   8.8941071
   0.5449564   0.5449564   0.5614661   0.5614661   0.5594244   0.5594244
   0.5446124   0.5446124   0.5455471   0.5455471   0.5609981   0.5609981
 TTTTTTTTTTTTTTTTTTTTTTTTTTTTTT MOQGAD      TELAPSE       43.22 TCPU       42.16
 TTTTTTTTTTTTTTTTTTTTTTTTTTTTTT SHELLXN     TELAPSE       50.72 TCPU       49.64
 TTTTTTTTTTTTTTTTTTTTTTTTTTTTTT MONMO3      TELAPSE       51.29 TCPU       50.13
 NUMERICALLY INTEGRATED DENSITY     59.9999935739
 TTTTTTTTTTTTTTTTTTTTTTTTTTTTTT NUMDFT      TELAPSE       52.17 TCPU       51.01
 CYC   4 ETOT(AU) -4.577545659166E+02 DETOT -2.17E-04 tst  2.01E-06 PX  2.18E-03
 TTTTTTTTTTTTTTTTTTTTTTTTTTTTTT DIIS        TELAPSE       52.18 TCPU       51.02
 DIIS TEST: 0.17855E-04 AT SCF   CYCLE   4 - DIIS ACTIVE - HISTORY:     4 CYCLES
 TTTTTTTTTTTTTTTTTTTTTTTTTTTTTT FDIK        TELAPSE       55.40 TCPU       51.03
 INSULATING STATE
 TOP OF VALENCE BANDS -    BAND     30; K    2; EIG -3.6583787E-01 AU
 TOP OF VALENCE BANDS -    BAND     30; K    1; EIG -3.6884784E-01 AU
 BOTTOM OF VIRTUAL BANDS - BAND     31; K    1; EIG -6.0883312E-02 AU
 INDIRECT ENERGY BAND GAP:   8.2982 eV
 TTTTTTTTTTTTTTTTTTTTTTTTTTTTTT PDIG        TELAPSE       55.44 TCPU       51.07
 CHARGE NORMALIZATION FACTOR   1.00000000
 TOTAL ATOMIC CHARGES:
   8.8932250   8.8932250   8.8949362   8.8949362   8.8940034   8.8940034
   0.5449852   0.5449852   0.5616012   0.5616012   0.5597698   0.5597698
   0.5447920   0.5447920   0.5455556   0.5455556   0.5611317   0.5611317
 TTTTTTTTTTTTTTTTTTTTTTTTTTTTTT MOQGAD      TELAPSE       55.46 TCPU       51.08
 TTTTTTTTTTTTTTTTTTTTTTTTTTTTTT SHELLXN     TELAPSE       62.95 TCPU       58.57
 TTTTTTTTTTTTTTTTTTTTTTTTTTTTTT MONMO3      TELAPSE       63.61 TCPU       59.23
 NUMERICALLY INTEGRATED DENSITY     59.9999935773
 TTTTTTTTTTTTTTTTTTTTTTTTTTTTTT NUMDFT      TELAPSE       64.49 TCPU       60.11
 CYC   5 ETOT(AU) -4.577545692290E+02 DETOT -3.31E-06 tst  5.05E-08 PX  3.31E-04
 TTTTTTTTTTTTTTTTTTTTTTTTTTTTTT DIIS        TELAPSE       64.51 TCPU       60.12
 DIIS TEST: 0.68723E-06 AT SCF   CYCLE   5 - DIIS ACTIVE - HISTORY:     5 CYCLES
 TTTTTTTTTTTTTTTTTTTTTTTTTTTTTT FDIK        TELAPSE       64.53 TCPU       60.13
 INSULATING STATE
 TOP OF VALENCE BANDS -    BAND     30; K    2; EIG -3.6579995E-01 AU
 TOP OF VALENCE BANDS -    BAND     30; K    1; EIG -3.6883889E-01 AU
 BOTTOM OF VIRTUAL BANDS - BAND     31; K    1; EIG -6.0847354E-02 AU
 INDIRECT ENERGY BAND GAP:   8.2982 eV
 TTTTTTTTTTTTTTTTTTTTTTTTTTTTTT PDIG        TELAPSE       64.54 TCPU       60.14
 CHARGE NORMALIZATION FACTOR   1.00000000
 TOTAL ATOMIC CHARGES:
   8.8929401   8.8929401   8.8952545   8.8952545   8.8937300   8.8937300
   0.5450706   0.5450706   0.5617262   0.5617262   0.5596518   0.5596518
   0.5447107   0.5447107   0.5456639   0.5456639   0.5612522   0.5612522
 TTTTTTTTTTTTTTTTTTTTTTTTTTTTTT MOQGAD      TELAPSE       64.54 TCPU       60.14
 TTTTTTTTTTTTTTTTTTTTTTTTTTTTTT SHELLXN     TELAPSE       72.05 TCPU       67.63
 TTTTTTTTTTTTTTTTTTTTTTTTTTTTTT MONMO3      TELAPSE       72.61 TCPU       68.18
 NUMERICALLY INTEGRATED DENSITY     59.9999935731
 TTTTTTTTTTTTTTTTTTTTTTTTTTTTTT NUMDFT      TELAPSE       73.52 TCPU       69.09
 CYC   6 ETOT(AU) -4.577545692217E+02 DETOT  7.35E-09 tst  3.52E-09 PX  1.67E-04
 TTTTTTTTTTTTTTTTTTTTTTTTTTTTTT DIIS        TELAPSE       73.53 TCPU       69.10
 DIIS TEST: 0.47261E-06 AT SCF   CYCLE   6 - DIIS ACTIVE - HISTORY:     6 CYCLES
 TTTTTTTTTTTTTTTTTTTTTTTTTTTTTT FDIK        TELAPSE       73.54 TCPU       69.11
 INSULATING STATE
 TOP OF VALENCE BANDS -    BAND     30; K    2; EIG -3.6579522E-01 AU
 TOP OF VALENCE BANDS -    BAND     30; K    1; EIG -3.6882224E-01 AU
 BOTTOM OF VIRTUAL BANDS - BAND     31; K    1; EIG -6.0842716E-02 AU
 INDIRECT ENERGY BAND GAP:   8.2982 eV
 TTTTTTTTTTTTTTTTTTTTTTTTTTTTTT PDIG        TELAPSE       73.55 TCPU       69.12
 CHARGE NORMALIZATION FACTOR   1.00000000
 TOTAL ATOMIC CHARGES:
   8.8930354   8.8930354   8.8950322   8.8950322   8.8938189   8.8938189
   0.5450494   0.5450494   0.5616908   0.5616908   0.5597433   0.5597433
   0.5447797   0.5447797   0.5456308   0.5456308   0.5612194   0.5612194
 TTTTTTTTTTTTTTTTTTTTTTTTTTTTTT MOQGAD      TELAPSE       73.55 TCPU       69.12
 TTTTTTTTTTTTTTTTTTTTTTTTTTTTTT SHELLXN     TELAPSE       81.04 TCPU       76.61
 +++ ENERGIES IN A.U. +++
 ::: EXT EL-POLE                                  -5.5284688206573E+02
 ::: EXT EL-SPHEROPOLE                             6.7071585257442E+00
 ::: BIELET ZONE E-E                               6.5945345210750E+02
 ::: TOTAL E-E                                     1.1331372856752E+02
 ::: TOTAL E-N + N-E                              -8.8872484701675E+02
 ::: TOTAL N-N                                    -1.0282844992740E+02
 ::: KINETIC ENERGY                                4.5476070683589E+02
 ::: PSEUDO TOTAL   ENERGY                        -4.2347886154075E+02
 ::: VIRIAL COEFFICIENT                            1.0356188065552E+00
 TTTTTTTTTTTTTTTTTTTTTTTTTTTTTT MONMO3      TELAPSE       81.60 TCPU       77.16
 NUMERICALLY INTEGRATED DENSITY     59.9999935754
 TTTTTTTTTTTTTTTTTTTTTTTTTTTTTT NUMDFT      TELAPSE       82.47 TCPU       78.03
 CYC   7 ETOT(AU) -4.577545693306E+02 DETOT -1.09E-07 tst  9.77E-10 PX  1.67E-04

 == SCF ENDED - CONVERGENCE ON ENERGY      E(AU) -4.5775456933063E+02 CYCLES   7


 ENERGY EXPRESSION=HARTREE+FOCK EXCH*0.00000+(HSE-3c     EXCH)*1.00000+PBEh-3c    CORR


 TOTAL ENERGY(DFT)(AU)(  7) -4.5775456933063E+02 DE-1.1E-07 tester 9.8E-10
 TTTTTTTTTTTTTTTTTTTTTTTTTTTTTT EDFT        TELAPSE       82.47 TCPU       78.03
 
 INFORMATION **** DFTD3 ENERGY **** CALCULATE DFTD3 ENERGY

           DFT-D V3(BJ)
 DF                                         hse3c     
 parameters
 s6       :    1.0000
 s8       :    0.0000
 a1       :    0.4411
 a2       :    4.5182
 k1 k3    :   16.0000   -4.0000
 Cutoff   :   50.2022
 CN-Cutoff:   21.1671
 
 Edisp /kcal,au:   -13.5223 -0.02154922

 E6    /kcal :   -14.6323
 E8    /kcal :     0.0000
 E6(ABC) "   :   1.109961
 
 INFORMATION **** DFTD3 ENERGY **** NORMAL TERMINATION OF DFTD3 MODULE

 GCP ENERGY CALCULATION
  level           hse3c               basis:hse3c
  Nbf            114
  Atoms           18

  Parameters: 
  sigma     1.0000
  eta       1.4086
  alpha     0.2908
  beta      1.9526

  dmp_scal      4.0000
  dmp_exp       6.0000
 cutoffs: 
   distance [bohr] 60.0
   noise    [a.u.] 2.2E-16
 SR-damping   T
 ** gCP correction **
  Egcp:        0.0677887198 / (a.u.) ||      42.5381 / (kcal/mol)
 INFORMATION **** GCP **** NORMAL TERMINATION OF GCP MODULE

 *******************************************************************************

 DFT-D3-GCP DISPERSION AND COUNTERPOISE CORRECTION

 D3 DISPERSION ENERGY (AU)      -2.1549221286305E-02
 GCP ENERGY (AU)                 6.7788719778768E-02
 TOTAL ENERGY + DISP + GCP (AU) -4.5770832983214E+02

 *******************************************************************************

 EIGENVECTORS IN FORTRAN UNIT 10
 TTTTTTTTTTTTTTTTTTTTTTTTTTTTTT END         TELAPSE       83.17 TCPU       78.71
 EEEEEEEEEE TERMINATION  DATE 25 03 2019 TIME 17:49:50.4
NODE    0 CPU TIME =        78.707
NODE    1 CPU TIME =        82.885
NODE    2 CPU TIME =        82.577
NODE    3 CPU TIME =        82.198
NODE    4 CPU TIME =        81.290
NODE    5 CPU TIME =        82.865
NODE    6 CPU TIME =        82.394
NODE    7 CPU TIME =        82.795
    TOTAL CPU TIME =       655.711
