 PROCESS            3  OF            8  WORKING
 PROCESS            4  OF            8  WORKING
 PROCESS            2  OF            8  WORKING
 PROCESS            6  OF            8  WORKING
 PROCESS            5  OF            8  WORKING
 PROCESS            0  OF            8  WORKING

         
 *******************************************************************************
 *                                                                             *
 *                               CRYSTAL17                                     *
 *                      public : 1.0.1 - Feb 1st, 2017                         *
 *                       HTTP://WWW.CRYSTAL.UNITO.IT                           *
 *                                                                             *
 *                              MAIN AUTHORS                                   *
 *                                                                             *
 *  R. DOVESI(1,11), V.R. SAUNDERS(2), C. ROETTI(1,11), R. ORLANDO(1,11),      *
 *  C.M. ZICOVICH-WILSON(1,3), F. PASCALE(4), B. CIVALLERI(1,11),              *
 *  K. DOLL(5), N.M. HARRISON(2,6), I.J. BUSH(7), Ph. D'ARCO(8),               *
 *  M. LLUNELL(9), M. CAUSA'(10), Y. NOEL(8), L. MASCHIO(1,11), A. ERBA(1,11)  *
 *  M. RE'RAT(14), S. CASASSA(1,11)                                            *
 *                                                                             *
 *        CONTRIBUTIONS TO THE CODE HAVE ALSO BEEN GIVEN BY                    *
 *                                                                             *
 *  M. FERRABONE(1,11), M. DE LA PIERRE(1,11), M. FERRERO(1,11),               *
 *  J. BAIMA(1,11), E. ALBANESE(1,11), M.F. PEINTINGER(12), R. BAST(13),       *
 *  B. KIRTMAN(15), V. LACIVITA(1,11), R. DEMICHELIS(1,16)                     *
 *  G. BRANDEBURG(17), S. SALUSTRO(1,11), G. SANSONE(1,11)                     *
 *  M.T. RUGGIERO(18)                                                          *
 *                                                                             *
 * (1) THEORETICAL CHEMISTRY GROUP - UNIVERSITA' DI TORINO - TORINO (ITALY)    *

 * (2) COMPUTATIONAL SCIENCE & ENGINEERING DEPARTMENT - STFC DARESBURY (UK)    *
 * (3) UNIVERSIDAD AUTONOMA DEL ESTADO DE MORELOS - CUERNAVACA (MEXICO)        *
 * (4) UNIVERSITE' DE LORRAINE - NANCY (FRANCE)                                *
 * (5) UNIVERSITAET STUTTGART- STUTTGART (GERMANY)                             *
 * (6) IMPERIAL COLLEGE - LONDON (UK)                                          *
 * (7) OXFORD E-RESEARCH CENTRE - OXFORD (UK)                                  *
 * (8) UPMC - SORBONNE UNIVERSITES - PARIS (FRANCE)                            *
 * (9) UNIVERSIDAD DE BARCELONA - BARCELONA (SPAIN)                            *
 *(10) UNIVERSITA' DI NAPOLI "FEDERICO II" - NAPOLI (ITALY)                    *
 *(11) NIS - NANOSTRUCTURED INTERFACES AND SURFACES - TORINO (ITALY)           *
 *(12) MPI FUER CHEMISCHE ENERGIEKONVERSION - MUELHEIM AN DER RUHR (GERMANY)   *
 *(13) UNIVERSITY OF TROMSO - TROMSO (NORWAY)                                  *
 *(14) UNIVERSITE' DE PAU ET DES PAYS DE L'ADOUR - PAU (FRANCE)                *
 *(15) UNIVERSITY OF CALIFORNIA SANTA BARBARA - SANTA BARBARA (USA)            *
 *(16) CURTIN UNIVERSITY - PERTH (AUSTRALIA)                                   *
 *(17) UNIVERSITY COLLEGE LONDON - LONDON (UK)                                 *
 *(18) CAMBRIDGE UNIVERSITY - CAMBRIDGE (UK)                                   *
 *                                                                             *
 *******************************************************************************
 PROCESS            7  OF            8  WORKING
 PROCESS            1  OF            8  WORKING
 EEEEEEEEEE STARTING  DATE 25 03 2019 TIME 17:48:30.8
 !drive by JGB                                                                   

 CRYSTAL CALCULATION
 (INPUT ACCORDING TO THE INTERNATIONAL TABLES FOR X-RAY CRYSTALLOGRAPHY)
 CRYSTAL FAMILY                       :  CUBIC       
 CRYSTAL CLASS  (GROTH - 1921)        :  CUBIC DYAKISDODECAHEDRAL             

 SPACE GROUP (CENTROSYMMETRIC)        :  I M 3           

 LATTICE PARAMETERS  (ANGSTROMS AND DEGREES) - CONVENTIONAL CELL
        A           B           C        ALPHA        BETA       GAMMA
     7.61608     7.61608     7.61608    90.00000    90.00000    90.00000


 NUMBER OF IRREDUCIBLE ATOMS IN THE CONVENTIONAL CELL:    2

 INPUT COORDINATES

 ATOM AT. N.              COORDINATES
   1   8     0.000000000000E+00  2.548729468899E-01  5.000000000000E-01
   2   1     0.000000000000E+00  3.337605690825E-01  3.974065272596E-01

 *******************************************************************************

 << INFORMATION >>: FROM NOW ON, ALL COORDINATES REFER TO THE PRIMITIVE CELL

 *******************************************************************************

 LATTICE PARAMETERS  (ANGSTROMS AND DEGREES) - PRIMITIVE CELL
       A          B          C        ALPHA      BETA     GAMMA        VOLUME
    6.59572    6.59572    6.59572   109.47122 109.47122 109.47122    220.884525

 COORDINATES OF THE EQUIVALENT ATOMS (FRACTIONAL UNITS)

 N. ATOM EQUIV AT. N.          X                  Y                  Z

   1   1   1    8 O    -2.45127053110E-01 -5.00000000000E-01  2.54872946890E-01
   2   1   2    8 O     2.45127053110E-01 -5.00000000000E-01 -2.54872946890E-01
   3   1   3    8 O     2.54872946890E-01 -2.45127053110E-01 -5.00000000000E-01
   4   1   4    8 O    -5.00000000000E-01  2.54872946890E-01 -2.45127053110E-01
   5   1   5    8 O    -5.00000000000E-01 -2.54872946890E-01  2.45127053110E-01
   6   1   6    8 O    -2.54872946890E-01  2.45127053110E-01 -5.00000000000E-01

   7   2   1    1 H    -2.68832903658E-01  3.97406527260E-01  3.33760569083E-01
   8   2   2    1 H     6.36459581771E-02  3.97406527260E-01 -3.33760569083E-01
   9   2   3    1 H     2.68832903658E-01 -3.97406527260E-01 -3.33760569083E-01
  10   2   4    1 H    -6.36459581771E-02 -3.97406527260E-01  3.33760569083E-01
  11   2   5    1 H     3.33760569083E-01 -2.68832903658E-01  3.97406527260E-01
  12   2   6    1 H     3.97406527260E-01  3.33760569083E-01 -2.68832903658E-01
  13   2   7    1 H     3.33760569083E-01 -6.36459581771E-02 -3.97406527260E-01
  14   2   8    1 H     3.97406527260E-01 -3.33760569083E-01  6.36459581771E-02
  15   2   9    1 H    -3.33760569083E-01  6.36459581771E-02  3.97406527260E-01
  16   2  10    1 H    -3.97406527260E-01 -3.33760569083E-01  2.68832903658E-01
  17   2  11    1 H    -3.33760569083E-01  2.68832903658E-01 -3.97406527260E-01
  18   2  12    1 H    -3.97406527260E-01  3.33760569083E-01 -6.36459581771E-02

 NUMBER OF SYMMETRY OPERATORS         :   24
 *******************************************************************************
 * GEOMETRY EDITING - INPUT COORDINATES ARE GIVEN IN ANGSTROM         
 *******************************************************************************

 GEOMETRY NOW FULLY CONSISTENT WITH THE GROUP

 GCALCO - MAX INDICES DIRECT LATTICE VECTOR    14    14    14
 NO.OF VECTORS CREATED 6999 STARS  122 RMAX   135.77682 BOHR

 GEOMETRY FOR WAVE FUNCTION - DIMENSIONALITY OF THE SYSTEM    3
 (NON PERIODIC DIRECTION: LATTICE PARAMETER FORMALLY SET TO 500)
 *******************************************************************************
 LATTICE PARAMETERS (ANGSTROMS AND DEGREES) - BOHR = 0.5291772083 ANGSTROM
 PRIMITIVE CELL - CENTRING CODE 6/0 VOLUME=   220.884525 - DENSITY  0.812 g/cm^3
         A              B              C           ALPHA      BETA       GAMMA 
     6.59572278     6.59572278     6.59572278   109.471221 109.471221 109.471221
 *******************************************************************************
 ATOMS IN THE ASYMMETRIC UNIT    2 - ATOMS IN THE UNIT CELL:   18
     ATOM                 X/A                 Y/B                 Z/C    
 *******************************************************************************
      1 T   8 O    -2.451270531101E-01 -5.000000000000E-01  2.548729468899E-01
      2 F   8 O     2.451270531101E-01 -5.000000000000E-01 -2.548729468899E-01
      3 F   8 O     2.548729468899E-01 -2.451270531101E-01 -5.000000000000E-01
      4 F   8 O    -5.000000000000E-01  2.548729468899E-01 -2.451270531101E-01
      5 F   8 O     5.000000000000E-01 -2.548729468899E-01  2.451270531101E-01
      6 F   8 O    -2.548729468899E-01  2.451270531101E-01 -5.000000000000E-01
      7 T   1 H    -2.688329036579E-01  3.974065272596E-01  3.337605690825E-01
      8 F   1 H     6.364595817710E-02  3.974065272596E-01 -3.337605690825E-01
      9 F   1 H     2.688329036579E-01 -3.974065272596E-01 -3.337605690825E-01
     10 F   1 H    -6.364595817710E-02 -3.974065272596E-01  3.337605690825E-01
     11 F   1 H     3.337605690825E-01 -2.688329036579E-01  3.974065272596E-01
     12 F   1 H     3.974065272596E-01  3.337605690825E-01 -2.688329036579E-01
     13 F   1 H     3.337605690825E-01 -6.364595817710E-02 -3.974065272596E-01
     14 F   1 H     3.974065272596E-01 -3.337605690825E-01  6.364595817710E-02
     15 F   1 H    -3.337605690825E-01  6.364595817710E-02  3.974065272596E-01
     16 F   1 H    -3.974065272596E-01 -3.337605690825E-01  2.688329036579E-01
     17 F   1 H    -3.337605690825E-01  2.688329036579E-01 -3.974065272596E-01
     18 F   1 H    -3.974065272596E-01  3.337605690825E-01 -6.364595817710E-02

 TRANSFORMATION MATRIX PRIMITIVE-CRYSTALLOGRAPHIC CELL
  0.0000  1.0000  1.0000  1.0000  0.0000  1.0000  1.0000  1.0000  0.0000

 *******************************************************************************
 CRYSTALLOGRAPHIC CELL (VOLUME=        441.76904930)
         A              B              C           ALPHA      BETA       GAMMA 
     7.61608464     7.61608464     7.61608464    90.000000  90.000000  90.000000

 COORDINATES IN THE CRYSTALLOGRAPHIC CELL
     ATOM                 X/A                 Y/B                 Z/C    
 *******************************************************************************
      1 T   8 O     0.000000000000E+00  2.548729468899E-01 -5.000000000000E-01
      2 F   8 O     1.542799872984E-17 -2.548729468899E-01 -5.000000000000E-01
      3 F   8 O    -5.000000000000E-01  0.000000000000E+00  2.548729468899E-01
      4 F   8 O     2.548729468899E-01 -5.000000000000E-01 -1.542799872984E-17
      5 F   8 O    -2.548729468899E-01 -5.000000000000E-01 -3.085599745969E-17
      6 F   8 O     5.000000000000E-01  3.085599745969E-17 -2.548729468899E-01
      7 T   1 H     0.000000000000E+00  3.337605690825E-01  3.974065272596E-01
      8 F   1 H    -6.171199491938E-17 -3.337605690825E-01  3.974065272596E-01
      9 F   1 H     1.234239898388E-16 -3.337605690825E-01 -3.974065272596E-01
     10 F   1 H     6.171199491938E-17  3.337605690825E-01 -3.974065272596E-01
     11 F   1 H     3.974065272596E-01  0.000000000000E+00  3.337605690825E-01
     12 F   1 H     3.337605690825E-01  3.974065272596E-01  6.171199491938E-17
     13 F   1 H    -3.974065272596E-01  6.171199491938E-17  3.337605690825E-01
     14 F   1 H    -3.337605690825E-01  3.974065272596E-01  6.171199491938E-17
     15 F   1 H     3.974065272596E-01  0.000000000000E+00 -3.337605690825E-01
     16 F   1 H    -3.337605690825E-01 -3.974065272596E-01 -6.171199491938E-17
     17 F   1 H    -3.974065272596E-01 -3.085599745969E-17 -3.337605690825E-01
     18 F   1 H     3.337605690825E-01 -3.974065272596E-01 -6.171199491938E-17

 T = ATOM BELONGING TO THE ASYMMETRIC UNIT

 ****   24 SYMMOPS - TRANSLATORS IN FRACTIONAL UNITS
 **** MATRICES AND TRANSLATORS IN THE CRYSTALLOGRAPHIC REFERENCE FRAME
   V INV                    ROTATION MATRICES                   TRANSLATORS
   1   1  1.00  0.00  0.00  0.00  1.00  0.00  0.00  0.00  1.00  0.00  0.00  0.00
   2   2  0.00  1.00 -1.00  1.00 -0.00 -1.00  0.00 -0.00 -1.00  0.00  0.00  0.00
   3   3 -1.00  0.00  0.00 -1.00  0.00  1.00 -1.00  1.00  0.00  0.00  0.00  0.00
   4   4  0.00 -1.00  1.00  0.00 -1.00 -0.00  1.00 -1.00 -0.00  0.00  0.00  0.00
   5   6 -0.00  0.00  1.00  1.00  0.00  0.00 -0.00  1.00  0.00  0.00  0.00  0.00
   6   5 -0.00  1.00  0.00 -0.00  0.00  1.00  1.00  0.00  0.00  0.00  0.00  0.00
   7   8  1.00 -1.00 -0.00  0.00 -1.00  1.00  0.00 -1.00 -0.00  0.00  0.00  0.00
   8   7  1.00 -0.00 -1.00  0.00 -0.00 -1.00  0.00  1.00 -1.00  0.00  0.00  0.00
   9  10  0.00 -0.00 -1.00  0.00  1.00 -1.00  1.00 -0.00 -1.00  0.00  0.00  0.00
  10   9 -1.00  0.00  1.00 -1.00  1.00  0.00 -1.00  0.00  0.00  0.00  0.00  0.00
  11  12 -1.00  1.00  0.00 -1.00  0.00  0.00 -1.00  0.00  1.00  0.00  0.00  0.00
  12  11  0.00 -1.00 -0.00  1.00 -1.00 -0.00  0.00 -1.00  1.00  0.00  0.00  0.00
  13  13 -1.00  0.00  0.00  0.00 -1.00 -0.00  0.00 -0.00 -1.00  0.00  0.00  0.00
  14  14  0.00 -1.00  1.00 -1.00  0.00  1.00 -0.00  0.00  1.00  0.00  0.00  0.00
  15  15  1.00  0.00  0.00  1.00 -0.00 -1.00  1.00 -1.00 -0.00  0.00  0.00  0.00
  16  16  0.00  1.00 -1.00 -0.00  1.00  0.00 -1.00  1.00  0.00  0.00  0.00  0.00
  17  18  0.00 -0.00 -1.00 -1.00  0.00  0.00  0.00 -1.00 -0.00  0.00  0.00  0.00
  18  17  0.00 -1.00 -0.00  0.00 -0.00 -1.00 -1.00  0.00  0.00  0.00  0.00  0.00
  19  20 -1.00  1.00  0.00  0.00  1.00 -1.00 -0.00  1.00  0.00  0.00  0.00  0.00
  20  19 -1.00  0.00  1.00 -0.00  0.00  1.00  0.00 -1.00  1.00  0.00  0.00  0.00
  21  22 -0.00  0.00  1.00  0.00 -1.00  1.00 -1.00  0.00  1.00  0.00  0.00  0.00
  22  21  1.00 -0.00 -1.00  1.00 -1.00 -0.00  1.00  0.00  0.00  0.00  0.00  0.00
  23  24  1.00 -1.00 -0.00  1.00  0.00  0.00  1.00 -0.00 -1.00  0.00  0.00  0.00
  24  23 -0.00  1.00  0.00 -1.00  1.00  0.00  0.00  1.00 -1.00  0.00  0.00  0.00

 DIRECT LATTICE VECTORS CARTESIAN COMPONENTS (ANGSTROM)
          X                    Y                    Z
  -0.380804232000E+01   0.380804232000E+01   0.380804232000E+01
   0.380804232000E+01  -0.380804232000E+01   0.380804232000E+01
   0.380804232000E+01   0.380804232000E+01  -0.380804232000E+01


 CARTESIAN COORDINATES - PRIMITIVE CELL
 *******************************************************************************
 *      ATOM          X(ANGSTROM)         Y(ANGSTROM)         Z(ANGSTROM)
 *******************************************************************************
    1     8 O     0.000000000000E+00 -5.674950704040E+00  3.808042320000E+00
    2     8 O     1.175009441523E-16 -1.941133935960E+00  3.808042320000E+00
    3     8 O     3.808042320000E+00  0.000000000000E+00 -5.674950704040E+00
    4     8 O    -5.674950704040E+00  3.808042320000E+00 -1.175009441523E-16
    5     8 O    -1.941133935960E+00  3.808042320000E+00 -2.350018883046E-16
    6     8 O     3.808042320000E+00  2.350018883046E-16 -1.941133935960E+00
    7     1 H     0.000000000000E+00  2.541948743627E+00  3.026681748098E+00
    8     1 H    -4.700037766092E-16 -2.541948743627E+00  3.026681748098E+00
    9     1 H     9.400075532184E-16 -2.541948743627E+00 -3.026681748098E+00
   10     1 H     4.700037766092E-16  2.541948743627E+00 -3.026681748098E+00
   11     1 H     3.026681748098E+00  0.000000000000E+00  2.541948743627E+00
   12     1 H     2.541948743627E+00  3.026681748098E+00  4.700037766092E-16
   13     1 H    -3.026681748098E+00  4.700037766092E-16  2.541948743627E+00
   14     1 H    -2.541948743627E+00  3.026681748098E+00  4.700037766092E-16
   15     1 H     3.026681748098E+00  0.000000000000E+00 -2.541948743627E+00
   16     1 H    -2.541948743627E+00 -3.026681748098E+00 -4.700037766092E-16
   17     1 H    -3.026681748098E+00 -2.350018883046E-16 -2.541948743627E+00
   18     1 H     2.541948743627E+00 -3.026681748098E+00 -4.700037766092E-16

 *******************************************************************************
 STARTING BASIS SET HANDLING 
 *******************************************************************************

 Loading internal basis set: DEF2-MSVP           

 Please cite in your publication:
 Fully Optimized Contracted Gaussian Basis Sets for Atoms Li to Kr. A. Schäfer, 
 H. Horn and R. Ahlrichs; J. Chem. Phys. 97, 2571 (1992).                       
                                                                                
                    
 S. Grimme, J. G. Brandenburg, C. Bannwarth, and A. Hansen, J. Chem. Phys., 143,
  054107 (2015).                                                                
                                                                                
                    

 *******************************************************************************
 LOCAL ATOMIC FUNCTIONS BASIS SET
 *******************************************************************************
   ATOM   X(AU)   Y(AU)   Z(AU)  N. TYPE  EXPONENT  S COEF   P COEF   D/F/G COEF
 *******************************************************************************
   1 O    0.000 -10.724   7.196
                                  1 S  
                                         6.773E+03 1.727E-03 0.000E+00 0.000E+00
                                         1.017E+03 1.325E-02 0.000E+00 0.000E+00
                                         2.313E+02 6.603E-02 0.000E+00 0.000E+00
                                         6.501E+01 2.353E-01 0.000E+00 0.000E+00
                                         2.050E+01 5.498E-01 0.000E+00 0.000E+00
                                  2 S  
                                         6.716E+00 1.000E+00 0.000E+00 0.000E+00
                                  3 S  
                                         1.147E+00 1.000E+00 0.000E+00 0.000E+00
                                  4 S  
                                         3.342E-01 1.000E+00 0.000E+00 0.000E+00
                           5-     7 P  
                                         1.769E+01 0.000E+00 4.359E-02 0.000E+00
                                         3.854E+00 0.000E+00 2.318E-01 0.000E+00
                                         1.047E+00 0.000E+00 5.146E-01 0.000E+00
                           8-    10 P  
                                         2.759E-01 0.000E+00 1.000E+00 0.000E+00
                          11-    15 D  
                                         8.000E-01 0.000E+00 0.000E+00 1.000E+00
   2 O    0.000  -3.668   7.196
   3 O    7.196   0.000 -10.724
   4 O  -10.724   7.196  -0.000
   5 O   -3.668   7.196  -0.000
   6 O    7.196   0.000  -3.668
   7 H    0.000   4.804   5.720
                                 91 S  
                                         1.874E+01 1.968E-02 0.000E+00 0.000E+00
                                         2.826E+00 1.380E-01 0.000E+00 0.000E+00
                                         6.401E-01 4.783E-01 0.000E+00 0.000E+00
                                 92 S  
                                         1.756E-01 1.000E+00 0.000E+00 0.000E+00
   8 H   -0.000  -4.804   5.720
   9 H    0.000  -4.804  -5.720
  10 H    0.000   4.804  -5.720
  11 H    5.720   0.000   4.804
  12 H    4.804   5.720   0.000
  13 H   -5.720   0.000   4.804
  14 H   -4.804   5.720   0.000
  15 H    5.720   0.000  -4.804
  16 H   -4.804  -5.720  -0.000
  17 H   -5.720  -0.000  -4.804
  18 H    4.804  -5.720  -0.000

 *******************************************************************************
 FINISHED BASIS SET HANDLING 
 *******************************************************************************

 INFORMATION **** SET_MPP **** PCRYSTAL CALCULATION
 INFORMATION **** READM2 **** NEW DEFAULT: FOCK/KS MATRIX MIXING SET TO 30 %
 INFORMATION **** READM2 **** NEW DEFAULT: FULL DIRECT SCF MODE
 INFORMATION **** READM2 **** NEW DEFAULT: COULOMB BIPOLAR BUFFER SET TO 32 Mb
 INFORMATION **** READM2 **** NEW DEFAULT: EXCHANGE BIPOLAR BUFFER SET TO 32 Mb

 *******************************************************************************
 NEW DEFAULT: DFT INTEGRATION GRID INCREASED TO XLGRID
 NEW DEFAULT: DIIS ACCELERATOR ACTIVE
 USE KEYWORD NODIIS TO TURN IT OFF
 *******************************************************************************

 INFORMATION **** RDDFTP **** HSE-3c calculation
 INFORMATION **** RDDFTP **** HSE screened hybrid functional combined with D3 and gCP

PLEASE CITE:
(1) HSE-3c Reference
 J. G. Brandenburg, E. Caldeweyer, and S. Grimme, 
 Phys. Chem. Chem. Phys. 18, 15519 (2016)
(2) DFT-D3 Reference
 S. Grimme, J. Antony, S. Ehrlich,
 and H. Krieg, J. Chem. Phys. 132, 154104 (2010)
(3) gCP Reference
 H. Kruse and S. Grimme J. Chem. Phys, 136, 154101 (2012)
 J. G. Brandenburg, M. Alessio, B. Civalleri, M. F. Peintinger
 T. Bredow, and S. Grimme, J. Phys. Chem. A, 117, 9282 (2013) 

 WARNING **** RDDFTP **** HSE3c-HJS ACTIVE
 RANGE SEPARATION - OMEGA:   0.110000000000000     
 WARNING **** RDDFTP **** HSE-3c has to be combined with def2-mSVP basis set
 WARNING **** RDDFTP **** Note: Harmonic frequencies are scaled by 0.95
 WARNING **** RDDFTP **** as recommended in original publication
 INFORMATION **** BIPOSIZE **** COULOMB BIPOLAR BUFFER SET TO    60000000
 INFORMATION **** EXCHSIZE **** EXCHANGE BIPOLAR BUFFER SIZE SET TO    40000000
 *******************************************************************************
 N. OF ATOMS PER CELL        18  COULOMB OVERLAP TOL         (T1) 10**   -6
 NUMBER OF SHELLS            66  COULOMB PENETRATION TOL     (T2) 10**   -6
 NUMBER OF AO               114  EXCHANGE OVERLAP TOL        (T3) 10**   -6
 N. OF ELECTRONS PER CELL    60  EXCHANGE PSEUDO OVP (F(G))  (T4) 10**   -6
 CORE ELECTRONS PER CELL     12  EXCHANGE PSEUDO OVP (P(G))  (T5) 10**  -12
 N. OF SYMMETRY OPERATORS    24  POLE ORDER IN MONO ZONE                  4
 *******************************************************************************
 TYPE OF CALCULATION :  RESTRICTED CLOSED SHELL
 KOHN-SHAM HAMILTONIAN

 (EXCHANGE)[CORRELATION] FUNCTIONAL:(HSE-3c)[PBEh-3c]

 RANGE-SEPARATED HYBRID FUNCTIONAL 
 OMEGA (SHORT-RANGE)[LONG-RANGE]:(    0.1100)[    0.0000]

 HYBRID EXCHANGE - PERCENTAGE OF FOCK EXCHANGE    42.0000

 CAPPA:IS1  2;IS2  2;IS3  2; K PTS MONK NET   3; SYMMOPS:K SPACE  24;G SPACE  24

 *******************************************************************************
 MAX NUMBER OF SCF CYCLES      50  CONVERGENCE ON DELTAP        10**-16
 WEIGHT OF F(I) IN F(I+1)      30% CONVERGENCE ON ENERGY        10**- 6
 S(K) EIGENV. THRESHOLD  10*10.**-4
 SHRINK. FACT.(MONKH.)    2  2  2  NUMBER OF K POINTS IN THE IBZ      3
 SHRINKING FACTOR(GILAT NET)    2  NUMBER OF K POINTS(GILAT NET)      3
 *******************************************************************************
 *** K POINTS COORDINATES (OBLIQUE COORDINATES IN UNITS OF IS =  2)
   1-R(  0  0  0)   2-R(  1  0  0)   3-R(  1  1  1)

 DIRECT LATTICE VECTORS COMPON. (A.U.)     RECIP. LATTICE VECTORS COMPON. (A.U.) 
        X            Y            Z              X            Y            Z
   -7.1961571    7.1961571    7.1961571      0.0000000    0.4365653    0.4365653
    7.1961571   -7.1961571    7.1961571      0.4365653    0.0000000    0.4365653
    7.1961571    7.1961571   -7.1961571      0.4365653    0.4365653    0.0000000

 DISK SPACE FOR EIGENVECTORS (FTN 10)       38988 REALS

 SYMMETRY ADAPTION OF THE BLOCH FUNCTIONS ENABLED
 TTTTTTTTTTTTTTTTTTTTTTTTTTTTTT gordsh1     TELAPSE        0.14 TCPU        0.04

 MATRIX SIZE: P(G)   46668, F(G)    8220, P(G) IRR    1579, F(G) IRR     691
 MAX G-VECTOR INDEX FOR 1- AND 2-ELECTRON INTEGRALS 133

 TTTTTTTTTTTTTTTTTTTTTTTTTTTTTT INPUT       TELAPSE        0.14 TCPU        0.04

 NEIGHBORS OF THE NON-EQUIVALENT ATOMS

 N = NUMBER OF NEIGHBORS AT DISTANCE R
    ATOM  N     R/ANG      R/AU   NEIGHBORS (ATOM LABELS AND CELL INDICES)
   1 O    2     0.9856     1.8626    7 H   -1 0-1   10 H    0 1-1
   1 O    2     1.7170     3.2446   16 H    0 1 0   18 H    0 0-1
   1 O    4     2.6932     5.0894    3 O    1 1-1    4 O   -1 1-1    5 O   -1 1-1
                                     6 O    0 0-1
   1 O    2     3.0025     5.6739   12 H   -1 0-2   14 H   -1 1-1
   1 O    2     3.2290     6.1019    8 H    0 0 0    9 H    1 1 0
   1 O    4     3.2492     6.1401   11 H    0 0-1   13 H    0 1 0   15 H    0 0-1
                                    17 H    0 1 0

   7 H    1     0.9856     1.8626    1 O    1 0 1
   7 H    1     1.5627     2.9531   10 H    1 1 0
   7 H    1     1.7170     3.2446    6 O    1 0 0
   7 H    4     2.3050     4.3559   15 H    1 0 0   16 H    1 1 1   17 H    1 1 1
                                    18 H    1 0 0
   7 H    1     2.5322     4.7851    8 H    1 0 1
   7 H    1     2.9756     5.6230    9 H    2 1 1


 SYMMETRY ALLOWED INTERNAL DEGREE(S) OF FREEDOM:   3
 TTTTTTTTTTTTTTTTTTTTTTTTTTTTTT SYMM        TELAPSE        0.34 TCPU        0.24
 TTTTTTTTTTTTTTTTTTTTTTTTTTTTTT INT_SCREEN  TELAPSE        0.34 TCPU        0.24

 DFT PARAMETERS

     ATOM       ELECTRONS   NET CHARGE   R(ANGSTROM)
   1   8  O       8.0000      0.0000     0.74000000
   7   1  H       1.0000      0.0000     1.11000000

 SIZE OF GRID=      20409
 TTTTTTTTTTTTTTTTTTTTTTTTTTTTTT MAKE_GRID2  TELAPSE        0.96 TCPU        0.86
 BECKE WEIGHT FUNCTION
 RADSAFE =     2.00
 TOLERANCES - DENSITY:10**- 6; POTENTIAL:10**- 9; GRID WGT:10**-14

 RADIAL INTEGRATION  - INTERVALS (POINTS,UPPER LIMIT):            1( 75,  4.0*R)

 ANGULAR INTEGRATION - INTERVALS (ACCURACY LEVEL [N. POINTS] UPPER LIMIT):
  1(  4[  86]   0.2)  2(  8[ 194]   0.5)  3( 12[ 350]   0.9)  4( 16[ 974]   3.5)
  5( 12[ 350]9999.0)
 TTTTTTTTTTTTTTTTTTTTTTTTTTTTTT INT_CALC    TELAPSE        0.98 TCPU        0.88
 EEEEEEEEEE INT_CALC TERMINATION  DATE 25 03 2019 TIME 17:48:31.7

 *******************************************************************************
 !drive by JGB                                                                   
 CRYSTAL - SCF - TYPE OF CALCULATION :  RESTRICTED CLOSED SHELL
 *******************************************************************************

 CAPPA:IS1  2;IS2  2;IS3  2; K PTS MONK NET   3; SYMMOPS:K SPACE  24;G SPACE  24

 TTTTTTTTTTTTTTTTTTTTTTTTTTTTTT SDIK        TELAPSE        0.99 TCPU        0.88

 AAAAAAAAAAAAAAAAAAAAAAAAAAAAAAAAAAAAAAAAAAAAAAAAAAAAAAAAAAAAAAAAAAAAAAAAAAAAAAA
         ATOMIC WAVEFUNCTION(S)


 NUCLEAR CHARGE  8.0  SYMMETRY SPECIES            S    P
 N. ELECTRONS    8.0  NUMBER OF PRIMITIVE GTOS    8    4
                      NUMBER OF CONTRACTED GTOS   4    2
                      NUMBER OF CLOSED SHELLS     2    0
                      OPEN SHELL OCCUPATION       0    4

  ZNUC SCFIT  TOTAL HF ENERGY   KINETIC ENERGY   VIRIAL THEOREM ACCURACY
   8.0  12   -7.477373220E+01  7.477365593E+01 -2.000001020E+00  3.8E-06

 NUCLEAR CHARGE  1.0  SYMMETRY SPECIES            S
 N. ELECTRONS    1.0  NUMBER OF PRIMITIVE GTOS    4
                      NUMBER OF CONTRACTED GTOS   2
                      NUMBER OF CLOSED SHELLS     0
                      OPEN SHELL OCCUPATION       1

  ZNUC SCFIT  TOTAL HF ENERGY   KINETIC ENERGY   VIRIAL THEOREM ACCURACY
   1.0   1   -4.977266687E-01  5.190767460E-01 -1.958869132E+00  1.8E-16

 AAAAAAAAAAAAAAAAAAAAAAAAAAAAAAAAAAAAAAAAAAAAAAAAAAAAAAAAAAAAAAAAAAAAAAAAAAAAAAA

 CHARGE NORMALIZATION FACTOR   1.00000000
 TOTAL ATOMIC CHARGES:
   8.0000000   8.0000000   8.0000000   8.0000000   8.0000000   8.0000000
   1.0000000   1.0000000   1.0000000   1.0000000   1.0000000   1.0000000
   1.0000000   1.0000000   1.0000000   1.0000000   1.0000000   1.0000000
 TTTTTTTTTTTTTTTTTTTTTTTTTTTTTT MOQGAD      TELAPSE        1.03 TCPU        0.92
 TTTTTTTTTTTTTTTTTTTTTTTTTTTTTT SHELLXN     TELAPSE        1.31 TCPU        1.17
 TTTTTTTTTTTTTTTTTTTTTTTTTTTTTT MONMO3      TELAPSE        1.38 TCPU        1.24
 NUMERICALLY INTEGRATED DENSITY     59.9999802565
 TTTTTTTTTTTTTTTTTTTTTTTTTTTTTT NUMDFT      TELAPSE        1.41 TCPU        1.28
 CYC   0 ETOT(AU) -4.579711480201E+02 DETOT -4.58E+02 tst  0.00E+00 PX  1.00E+00
 TTTTTTTTTTTTTTTTTTTTTTTTTTTTTT DIIS        TELAPSE        1.42 TCPU        1.28
 TTTTTTTTTTTTTTTTTTTTTTTTTTTTTT FDIK        TELAPSE        1.74 TCPU        1.43
 INSULATING STATE
 TOP OF VALENCE BANDS -    BAND     30; K    2; EIG -4.2181805E-01 AU
 TOP OF VALENCE BANDS -    BAND     30; K    1; EIG -4.2404232E-01 AU
 BOTTOM OF VIRTUAL BANDS - BAND     31; K    1; EIG -3.1459013E-02 AU
 INDIRECT ENERGY BAND GAP:  10.6222 eV
 TTTTTTTTTTTTTTTTTTTTTTTTTTTTTT PDIG        TELAPSE        1.75 TCPU        1.44
 CHARGE NORMALIZATION FACTOR   1.00000000
 TOTAL ATOMIC CHARGES:
   9.0756022   9.0756022   9.0756022   9.0756022   9.0756022   9.0756022
   0.4621989   0.4621989   0.4621989   0.4621989   0.4621989   0.4621989
   0.4621989   0.4621989   0.4621989   0.4621989   0.4621989   0.4621989
 TTTTTTTTTTTTTTTTTTTTTTTTTTTTTT MOQGAD      TELAPSE        1.76 TCPU        1.44
 TTTTTTTTTTTTTTTTTTTTTTTTTTTTTT SHELLXN     TELAPSE        2.03 TCPU        1.70
 TTTTTTTTTTTTTTTTTTTTTTTTTTTTTT MONMO3      TELAPSE        2.12 TCPU        1.79
 NUMERICALLY INTEGRATED DENSITY     59.9999837591
 TTTTTTTTTTTTTTTTTTTTTTTTTTTTTT NUMDFT      TELAPSE        2.18 TCPU        1.86
 CYC   1 ETOT(AU) -4.576361054381E+02 DETOT  3.35E-01 tst  0.00E+00 PX  1.00E+00
 TTTTTTTTTTTTTTTTTTTTTTTTTTTTTT DIIS        TELAPSE        2.19 TCPU        1.87
 DIIS TEST: 0.29370E+00 AT SCF   CYCLE   1 - MIX   30 %
 TTTTTTTTTTTTTTTTTTTTTTTTTTTTTT FDIK        TELAPSE        2.20 TCPU        1.87
 INSULATING STATE
 TOP OF VALENCE BANDS -    BAND     30; K    2; EIG -3.1987792E-01 AU
 TOP OF VALENCE BANDS -    BAND     30; K    1; EIG -3.2264061E-01 AU
 BOTTOM OF VIRTUAL BANDS - BAND     31; K    1; EIG  3.8092565E-02 AU
 INDIRECT ENERGY BAND GAP:   9.7409 eV
 TTTTTTTTTTTTTTTTTTTTTTTTTTTTTT PDIG        TELAPSE        2.21 TCPU        1.87
 CHARGE NORMALIZATION FACTOR   1.00000000
 TOTAL ATOMIC CHARGES:
   8.8695666   8.8695666   8.8695666   8.8695666   8.8695666   8.8695666
   0.5652167   0.5652167   0.5652167   0.5652167   0.5652167   0.5652167
   0.5652167   0.5652167   0.5652167   0.5652167   0.5652167   0.5652167
 TTTTTTTTTTTTTTTTTTTTTTTTTTTTTT MOQGAD      TELAPSE        2.21 TCPU        1.87
 TTTTTTTTTTTTTTTTTTTTTTTTTTTTTT SHELLXN     TELAPSE        2.48 TCPU        2.13
 TTTTTTTTTTTTTTTTTTTTTTTTTTTTTT MONMO3      TELAPSE        2.57 TCPU        2.20
 NUMERICALLY INTEGRATED DENSITY     59.9999841423
 TTTTTTTTTTTTTTTTTTTTTTTTTTTTTT NUMDFT      TELAPSE        2.66 TCPU        2.26
 CYC   2 ETOT(AU) -4.577594282048E+02 DETOT -1.23E-01 tst  3.10E-03 PX  1.21E-01
 TTTTTTTTTTTTTTTTTTTTTTTTTTTTTT DIIS        TELAPSE        2.70 TCPU        2.30
 DIIS TEST: 0.64280E-01 AT SCF   CYCLE   2 - DIIS ACTIVE - HISTORY:     2 CYCLES
 TTTTTTTTTTTTTTTTTTTTTTTTTTTTTT FDIK        TELAPSE        2.70 TCPU        2.30
 INSULATING STATE
 TOP OF VALENCE BANDS -    BAND     30; K    2; EIG -3.6067742E-01 AU
 TOP OF VALENCE BANDS -    BAND     30; K    1; EIG -3.6311512E-01 AU
 BOTTOM OF VIRTUAL BANDS - BAND     31; K    1; EIG  3.7685047E-02 AU
 INDIRECT ENERGY BAND GAP:  10.8400 eV
 TTTTTTTTTTTTTTTTTTTTTTTTTTTTTT PDIG        TELAPSE        2.70 TCPU        2.30
 CHARGE NORMALIZATION FACTOR   1.00000000
 TOTAL ATOMIC CHARGES:
   8.9382694   8.9382694   8.9382694   8.9382694   8.9382694   8.9382694
   0.5308653   0.5308653   0.5308653   0.5308653   0.5308653   0.5308653
   0.5308653   0.5308653   0.5308653   0.5308653   0.5308653   0.5308653
 TTTTTTTTTTTTTTTTTTTTTTTTTTTTTT MOQGAD      TELAPSE        2.70 TCPU        2.30
 TTTTTTTTTTTTTTTTTTTTTTTTTTTTTT SHELLXN     TELAPSE        2.96 TCPU        2.56
 TTTTTTTTTTTTTTTTTTTTTTTTTTTTTT MONMO3      TELAPSE        3.06 TCPU        2.65
 NUMERICALLY INTEGRATED DENSITY     59.9999840553
 TTTTTTTTTTTTTTTTTTTTTTTTTTTTTT NUMDFT      TELAPSE        3.12 TCPU        2.72
 CYC   3 ETOT(AU) -4.577914736912E+02 DETOT -3.20E-02 tst  3.23E-04 PX  4.17E-02
 TTTTTTTTTTTTTTTTTTTTTTTTTTTTTT DIIS        TELAPSE        3.13 TCPU        2.72
 DIIS TEST: 0.91664E-04 AT SCF   CYCLE   3 - DIIS ACTIVE - HISTORY:     3 CYCLES
 TTTTTTTTTTTTTTTTTTTTTTTTTTTTTT FDIK        TELAPSE        3.13 TCPU        2.72
 INSULATING STATE
 TOP OF VALENCE BANDS -    BAND     30; K    2; EIG -3.5937784E-01 AU
 TOP OF VALENCE BANDS -    BAND     30; K    1; EIG -3.6182171E-01 AU
 BOTTOM OF VIRTUAL BANDS - BAND     31; K    1; EIG  3.9665918E-02 AU
 INDIRECT ENERGY BAND GAP:  10.8585 eV
 TTTTTTTTTTTTTTTTTTTTTTTTTTTTTT PDIG        TELAPSE        3.13 TCPU        2.72
 CHARGE NORMALIZATION FACTOR   1.00000000
 TOTAL ATOMIC CHARGES:
   8.9376467   8.9376467   8.9376467   8.9376467   8.9376467   8.9376467
   0.5311767   0.5311767   0.5311767   0.5311767   0.5311767   0.5311767
   0.5311767   0.5311767   0.5311767   0.5311767   0.5311767   0.5311767
 TTTTTTTTTTTTTTTTTTTTTTTTTTTTTT MOQGAD      TELAPSE        3.13 TCPU        2.73
 TTTTTTTTTTTTTTTTTTTTTTTTTTTTTT SHELLXN     TELAPSE        3.39 TCPU        2.98
 TTTTTTTTTTTTTTTTTTTTTTTTTTTTTT MONMO3      TELAPSE        3.49 TCPU        3.08
 NUMERICALLY INTEGRATED DENSITY     59.9999840777
 TTTTTTTTTTTTTTTTTTTTTTTTTTTTTT NUMDFT      TELAPSE        3.56 TCPU        3.15
 CYC   4 ETOT(AU) -4.577915117976E+02 DETOT -3.81E-05 tst  1.12E-06 PX  9.42E-04
 TTTTTTTTTTTTTTTTTTTTTTTTTTTTTT DIIS        TELAPSE        3.56 TCPU        3.15
 DIIS TEST: 0.29277E-05 AT SCF   CYCLE   4 - DIIS ACTIVE - HISTORY:     4 CYCLES
 TTTTTTTTTTTTTTTTTTTTTTTTTTTTTT FDIK        TELAPSE        3.56 TCPU        3.15
 INSULATING STATE
 TOP OF VALENCE BANDS -    BAND     30; K    2; EIG -3.5929631E-01 AU
 TOP OF VALENCE BANDS -    BAND     30; K    1; EIG -3.6173917E-01 AU
 BOTTOM OF VIRTUAL BANDS - BAND     31; K    1; EIG  3.9857301E-02 AU
 INDIRECT ENERGY BAND GAP:  10.8615 eV
 TTTTTTTTTTTTTTTTTTTTTTTTTTTTTT PDIG        TELAPSE        3.56 TCPU        3.15
 CHARGE NORMALIZATION FACTOR   1.00000000
 TOTAL ATOMIC CHARGES:
   8.9376817   8.9376817   8.9376817   8.9376817   8.9376817   8.9376817
   0.5311591   0.5311591   0.5311591   0.5311591   0.5311591   0.5311591
   0.5311591   0.5311591   0.5311591   0.5311591   0.5311591   0.5311591
 TTTTTTTTTTTTTTTTTTTTTTTTTTTTTT MOQGAD      TELAPSE        3.56 TCPU        3.15
 TTTTTTTTTTTTTTTTTTTTTTTTTTTTTT SHELLXN     TELAPSE        3.82 TCPU        3.41
 TTTTTTTTTTTTTTTTTTTTTTTTTTTTTT MONMO3      TELAPSE        3.92 TCPU        3.51
 NUMERICALLY INTEGRATED DENSITY     59.9999840737
 TTTTTTTTTTTTTTTTTTTTTTTTTTTTTT NUMDFT      TELAPSE        3.98 TCPU        3.57
 CYC   5 ETOT(AU) -4.577915130439E+02 DETOT -1.25E-06 tst  2.75E-08 PX  2.17E-04
 TTTTTTTTTTTTTTTTTTTTTTTTTTTTTT DIIS        TELAPSE        3.99 TCPU        3.57
 DIIS TEST: 0.43213E-07 AT SCF   CYCLE   5 - DIIS ACTIVE - HISTORY:     5 CYCLES
 TTTTTTTTTTTTTTTTTTTTTTTTTTTTTT FDIK        TELAPSE        3.99 TCPU        3.57
 INSULATING STATE
 TOP OF VALENCE BANDS -    BAND     30; K    2; EIG -3.5928276E-01 AU
 TOP OF VALENCE BANDS -    BAND     30; K    1; EIG -3.6172584E-01 AU
 BOTTOM OF VIRTUAL BANDS - BAND     31; K    1; EIG  3.9873231E-02 AU
 INDIRECT ENERGY BAND GAP:  10.8616 eV
 TTTTTTTTTTTTTTTTTTTTTTTTTTTTTT PDIG        TELAPSE        3.99 TCPU        3.57
 CHARGE NORMALIZATION FACTOR   1.00000000
 TOTAL ATOMIC CHARGES:
   8.9376431   8.9376431   8.9376431   8.9376431   8.9376431   8.9376431
   0.5311785   0.5311785   0.5311785   0.5311785   0.5311785   0.5311785
   0.5311785   0.5311785   0.5311785   0.5311785   0.5311785   0.5311785
 TTTTTTTTTTTTTTTTTTTTTTTTTTTTTT MOQGAD      TELAPSE        3.99 TCPU        3.58
 TTTTTTTTTTTTTTTTTTTTTTTTTTTTTT SHELLXN     TELAPSE        4.25 TCPU        3.83
 TTTTTTTTTTTTTTTTTTTTTTTTTTTTTT MONMO3      TELAPSE        4.35 TCPU        3.93
 NUMERICALLY INTEGRATED DENSITY     59.9999840735
 TTTTTTTTTTTTTTTTTTTTTTTTTTTTTT NUMDFT      TELAPSE        4.41 TCPU        3.99
 CYC   6 ETOT(AU) -4.577915130432E+02 DETOT  7.22E-10 tst  5.45E-10 PX  5.36E-05
 TTTTTTTTTTTTTTTTTTTTTTTTTTTTTT DIIS        TELAPSE        4.41 TCPU        3.99
 DIIS TEST: 0.47762E-09 AT SCF   CYCLE   6 - DIIS ACTIVE - HISTORY:     6 CYCLES
 TTTTTTTTTTTTTTTTTTTTTTTTTTTTTT FDIK        TELAPSE        4.41 TCPU        4.00
 INSULATING STATE
 TOP OF VALENCE BANDS -    BAND     30; K    2; EIG -3.5928067E-01 AU
 TOP OF VALENCE BANDS -    BAND     30; K    1; EIG -3.6172379E-01 AU
 BOTTOM OF VIRTUAL BANDS - BAND     31; K    1; EIG  3.9875336E-02 AU
 INDIRECT ENERGY BAND GAP:  10.8616 eV
 TTTTTTTTTTTTTTTTTTTTTTTTTTTTTT PDIG        TELAPSE        4.42 TCPU        4.00
 CHARGE NORMALIZATION FACTOR   1.00000000
 TOTAL ATOMIC CHARGES:
   8.9376364   8.9376364   8.9376364   8.9376364   8.9376364   8.9376364
   0.5311818   0.5311818   0.5311818   0.5311818   0.5311818   0.5311818
   0.5311818   0.5311818   0.5311818   0.5311818   0.5311818   0.5311818
 TTTTTTTTTTTTTTTTTTTTTTTTTTTTTT MOQGAD      TELAPSE        4.42 TCPU        4.00
 TTTTTTTTTTTTTTTTTTTTTTTTTTTTTT SHELLXN     TELAPSE        4.68 TCPU        4.26
 +++ ENERGIES IN A.U. +++
 ::: EXT EL-POLE                                  -3.4745757560298E+02
 ::: EXT EL-SPHEROPOLE                             3.9976535487114E+00
 ::: BIELET ZONE E-E                               5.0042934160932E+02
 ::: TOTAL E-E                                     1.5696941955505E+02
 ::: TOTAL E-N + N-E                              -9.8044755949707E+02
 ::: TOTAL N-N                                    -5.4855470028434E+01
 ::: KINETIC ENERGY                                4.5488611776563E+02
 ::: PSEUDO TOTAL   ENERGY                        -4.2344749220482E+02
 ::: VIRIAL COEFFICIENT                            1.0357934903139E+00
 TTTTTTTTTTTTTTTTTTTTTTTTTTTTTT MONMO3      TELAPSE        4.77 TCPU        4.35
 NUMERICALLY INTEGRATED DENSITY     59.9999840735
 TTTTTTTTTTTTTTTTTTTTTTTTTTTTTT NUMDFT      TELAPSE        4.83 TCPU        4.41
 CYC   7 ETOT(AU) -4.577915130401E+02 DETOT  3.09E-09 tst  9.22E-12 PX  5.36E-05

 == SCF ENDED - CONVERGENCE ON ENERGY      E(AU) -4.5779151304008E+02 CYCLES   7


 ENERGY EXPRESSION=HARTREE+FOCK EXCH*0.00000+(HSE-3c     EXCH)*1.00000+PBEh-3c    CORR


 TOTAL ENERGY(DFT)(AU)(  7) -4.5779151304008E+02 DE 3.1E-09 tester 9.2E-12
 TTTTTTTTTTTTTTTTTTTTTTTTTTTTTT EDFT        TELAPSE        4.83 TCPU        4.41
 
 INFORMATION **** DFTD3 ENERGY **** CALCULATE DFTD3 ENERGY

           DFT-D V3(BJ)
 DF                                         hse3c     
 parameters
 s6       :    1.0000
 s8       :    0.0000
 a1       :    0.4411
 a2       :    4.5182
 k1 k3    :   16.0000   -4.0000
 Cutoff   :   50.2022
 CN-Cutoff:   21.1671
 
 Edisp /kcal,au:    -8.4141 -0.01340868

 E6    /kcal :    -8.7423
 E8    /kcal :     0.0000
 E6(ABC) "   :   0.328201
 
 INFORMATION **** DFTD3 ENERGY **** NORMAL TERMINATION OF DFTD3 MODULE

 GCP ENERGY CALCULATION
  level           hse3c               basis:hse3c
  Nbf            114
  Atoms           18

  Parameters: 
  sigma     1.0000
  eta       1.4086
  alpha     0.2908
  beta      1.9526

  dmp_scal      4.0000
  dmp_exp       6.0000
 cutoffs: 
   distance [bohr] 60.0
   noise    [a.u.] 2.2E-16
 SR-damping   T
 ** gCP correction **
  Egcp:        0.0783824217 / (a.u.) ||      49.1857 / (kcal/mol)
 INFORMATION **** GCP **** NORMAL TERMINATION OF GCP MODULE

 *******************************************************************************

 DFT-D3-GCP DISPERSION AND COUNTERPOISE CORRECTION

 D3 DISPERSION ENERGY (AU)      -1.3408680548712E-02
 GCP ENERGY (AU)                 7.8382421683419E-02
 TOTAL ENERGY + DISP + GCP (AU) -4.5772653929895E+02

 *******************************************************************************

 EIGENVECTORS IN FORTRAN UNIT 10
 TTTTTTTTTTTTTTTTTTTTTTTTTTTTTT END         TELAPSE        5.18 TCPU        4.75
 EEEEEEEEEE TERMINATION  DATE 25 03 2019 TIME 17:48:35.9
NODE    0 CPU TIME =         4.750
NODE    1 CPU TIME =         4.700
NODE    2 CPU TIME =         4.790
NODE    3 CPU TIME =         4.671
NODE    4 CPU TIME =         5.038
NODE    5 CPU TIME =         4.951
NODE    6 CPU TIME =         4.908
NODE    7 CPU TIME =         4.857
    TOTAL CPU TIME =        38.665
