 PROCESS            5  OF            8  WORKING
 PROCESS            6  OF            8  WORKING
 PROCESS            2  OF            8  WORKING
 PROCESS            7  OF            8  WORKING
 PROCESS            3  OF            8  WORKING
 PROCESS            0  OF            8  WORKING
 PROCESS            1  OF            8  WORKING
 PROCESS            4  OF            8  WORKING

         
 *******************************************************************************
 *                                                                             *
 *                               CRYSTAL17                                     *
 *                      public : 1.0.1 - Feb 1st, 2017                         *
 *                       HTTP://WWW.CRYSTAL.UNITO.IT                           *
 *                                                                             *
 *                              MAIN AUTHORS                                   *
 *                                                                             *
 *  R. DOVESI(1,11), V.R. SAUNDERS(2), C. ROETTI(1,11), R. ORLANDO(1,11),      *
 *  C.M. ZICOVICH-WILSON(1,3), F. PASCALE(4), B. CIVALLERI(1,11),              *
 *  K. DOLL(5), N.M. HARRISON(2,6), I.J. BUSH(7), Ph. D'ARCO(8),               *
 *  M. LLUNELL(9), M. CAUSA'(10), Y. NOEL(8), L. MASCHIO(1,11), A. ERBA(1,11)  *
 *  M. RE'RAT(14), S. CASASSA(1,11)                                            *
 *                                                                             *
 *        CONTRIBUTIONS TO THE CODE HAVE ALSO BEEN GIVEN BY                    *
 *                                                                             *
 *  M. FERRABONE(1,11), M. DE LA PIERRE(1,11), M. FERRERO(1,11),               *
 *  J. BAIMA(1,11), E. ALBANESE(1,11), M.F. PEINTINGER(12), R. BAST(13),       *
 *  B. KIRTMAN(15), V. LACIVITA(1,11), R. DEMICHELIS(1,16)                     *
 *  G. BRANDEBURG(17), S. SALUSTRO(1,11), G. SANSONE(1,11)                     *
 *  M.T. RUGGIERO(18)                                                          *
 *                                                                             *
 * (1) THEORETICAL CHEMISTRY GROUP - UNIVERSITA' DI TORINO - TORINO (ITALY)    *

 * (2) COMPUTATIONAL SCIENCE & ENGINEERING DEPARTMENT - STFC DARESBURY (UK)    *
 * (3) UNIVERSIDAD AUTONOMA DEL ESTADO DE MORELOS - CUERNAVACA (MEXICO)        *
 * (4) UNIVERSITE' DE LORRAINE - NANCY (FRANCE)                                *
 * (5) UNIVERSITAET STUTTGART- STUTTGART (GERMANY)                             *
 * (6) IMPERIAL COLLEGE - LONDON (UK)                                          *
 * (7) OXFORD E-RESEARCH CENTRE - OXFORD (UK)                                  *
 * (8) UPMC - SORBONNE UNIVERSITES - PARIS (FRANCE)                            *
 * (9) UNIVERSIDAD DE BARCELONA - BARCELONA (SPAIN)                            *
 *(10) UNIVERSITA' DI NAPOLI "FEDERICO II" - NAPOLI (ITALY)                    *
 *(11) NIS - NANOSTRUCTURED INTERFACES AND SURFACES - TORINO (ITALY)           *
 *(12) MPI FUER CHEMISCHE ENERGIEKONVERSION - MUELHEIM AN DER RUHR (GERMANY)   *
 *(13) UNIVERSITY OF TROMSO - TROMSO (NORWAY)                                  *
 *(14) UNIVERSITE' DE PAU ET DES PAYS DE L'ADOUR - PAU (FRANCE)                *
 *(15) UNIVERSITY OF CALIFORNIA SANTA BARBARA - SANTA BARBARA (USA)            *
 *(16) CURTIN UNIVERSITY - PERTH (AUSTRALIA)                                   *
 *(17) UNIVERSITY COLLEGE LONDON - LONDON (UK)                                 *
 *(18) CAMBRIDGE UNIVERSITY - CAMBRIDGE (UK)                                   *
 *                                                                             *
 *******************************************************************************
 EEEEEEEEEE STARTING  DATE 25 03 2019 TIME 17:49:18.4
 !drive by JGB                                                                   

 CRYSTAL CALCULATION
 (INPUT ACCORDING TO THE INTERNATIONAL TABLES FOR X-RAY CRYSTALLOGRAPHY)
 CRYSTAL FAMILY                       :  TRICLINIC   
 CRYSTAL CLASS  (GROTH - 1921)        :  TRICLINIC PEDIAL                     

 SPACE GROUP (NONCENTROSYMMETRIC)     :  P 1             

 LATTICE PARAMETERS  (ANGSTROMS AND DEGREES) - CONVENTIONAL CELL
        A           B           C        ALPHA        BETA       GAMMA
     7.50678     7.47546     7.49387    91.82841    90.34609    89.48212


 NUMBER OF IRREDUCIBLE ATOMS IN THE CONVENTIONAL CELL:   48

 INPUT COORDINATES

 ATOM AT. N.              COORDINATES
   1   8     1.170013050678E-01  1.045205180122E-01  1.025914531741E-01
   2   8     4.176384080431E-01  9.120655490187E-01  5.833187634537E-01
   3   8     9.123576218019E-01  8.944197137007E-01  8.976467528519E-01
   4   8     4.050491645362E-01  6.065231635521E-01  8.450969695292E-02
   5   8     1.156996966287E-01  3.912342492441E-01  5.758055691190E-01
   6   8     6.218991792909E-01  1.137874206247E-01  3.896836554964E-01
   7   8     6.104943960344E-01  3.995769579214E-01  8.787507820765E-01
   8   8     9.076108896724E-01  5.987189845321E-01  3.837841084564E-01
   9   8     4.121933882000E-01  4.057688877173E-01  3.762898489385E-01
  10   8     1.143631733031E-01  5.977319605417E-01  8.755734700042E-01
  11   8     6.148079227060E-01  6.054939620346E-01  5.926982497065E-01
  12   8     1.174661642952E-01  8.934582857076E-01  3.870370023791E-01
  13   8     4.014655526367E-01  1.117296945508E-01  8.869211291597E-01
  14   8     9.129087846891E-01  3.990334103285E-01  7.507281346318E-02
  15   8     9.163141236152E-01  9.570564090830E-02  6.019057888941E-01
  16   8     6.044011082690E-01  9.097410546270E-01  9.045718272756E-02
  17   1     4.550888694971E-02  2.161795672184E-01  1.049866775560E-01
  18   1     2.209297537899E-01  1.217878012173E-01  2.582783695963E-02
  19   1     4.953429906194E-01  9.874725298634E-01  5.105385394601E-01
  20   1     4.869713801653E-01  8.011608723129E-01  6.000065698805E-01
  21   1     9.873682255682E-01  9.716320691197E-01  9.765580942798E-01
  22   1     8.982895307974E-01  9.631671598926E-01  7.884146446470E-01
  23   1     4.822849340515E-01  5.284182136904E-01  7.851768046398E-03
  24   1     4.735509530723E-01  7.175353538315E-01  1.012056541492E-01
  25   1     4.592708913511E-02  2.829377218352E-01  5.982393646467E-01
  26   1     1.262435455270E-01  4.615796725570E-01  6.886928353045E-01
  27   1     5.498046780396E-01  2.221229554735E-01  3.701525772902E-01
  28   1     6.280902697537E-01  4.380834196541E-02  2.757212326936E-01
  29   1     7.236810106326E-01  3.899994243993E-01  9.456239553845E-01
  30   1     6.293717150876E-01  4.731988640856E-01  7.734504524682E-01
  31   1     9.845960881087E-01  5.190941553286E-01  4.545914867182E-01
  32   1     9.784928809903E-01  7.074371515177E-01  3.718603453996E-01
  33   1     2.986655568832E-01  3.914852210325E-01  4.389029879547E-01
  34   1     3.934026971312E-01  4.800922785713E-01  2.712833463694E-01
  35   1     4.506920741441E-02  7.107120659039E-01  8.717411297588E-01
  36   1     2.218083183579E-01  6.183928982785E-01  9.497849045387E-01
  37   1     7.248023721721E-01  6.187916599375E-01  5.233514486412E-01
  38   1     5.380953334795E-01  5.308967832173E-01  5.129465604438E-01
  39   1     2.317837304320E-01  8.884072016825E-01  4.525858986637E-01
  40   1     1.321459204789E-01  9.697144659407E-01  2.837259187874E-01
  41   1     4.755240904866E-01  2.177448320857E-01  8.691111385247E-01
  42   1     3.963069446437E-01  4.144692893042E-02  7.731327383411E-01
  43   1     8.963624161718E-01  4.709489960622E-01  1.864284970479E-01
  44   1     9.897013581495E-01  4.734025114667E-01  4.221930756580E-04
  45   1     8.068216139447E-01  1.152200817092E-01  5.324925120399E-01
  46   1     9.902475984206E-01  1.644618220483E-02  5.232150752705E-01
  47   1     7.152351282531E-01  8.908685775575E-01  2.267481928068E-02
  48   1     5.285929025027E-01  9.849180080894E-01  1.379252952442E-02

 *******************************************************************************

 << INFORMATION >>: FROM NOW ON, ALL COORDINATES REFER TO THE PRIMITIVE CELL

 *******************************************************************************

 LATTICE PARAMETERS  (ANGSTROMS AND DEGREES) - PRIMITIVE CELL
       A          B          C        ALPHA      BETA     GAMMA        VOLUME
    7.50678    7.47546    7.49387    91.82841  90.34609  89.48212    420.292820

 COORDINATES OF THE EQUIVALENT ATOMS (FRACTIONAL UNITS)

 N. ATOM EQUIV AT. N.          X                  Y                  Z

   1   1   1    8 O     1.17001305068E-01  1.04520518012E-01  1.02591453174E-01

   2   2   1    8 O     4.17638408043E-01 -8.79344509813E-02 -4.16681236546E-01

   3   3   1    8 O    -8.76423781981E-02 -1.05580286299E-01 -1.02353247148E-01

   4   4   1    8 O     4.05049164536E-01 -3.93476836448E-01  8.45096969529E-02

   5   5   1    8 O     1.15699696629E-01  3.91234249244E-01 -4.24194430881E-01

   6   6   1    8 O    -3.78100820709E-01  1.13787420625E-01  3.89683655496E-01

   7   7   1    8 O    -3.89505603966E-01  3.99576957921E-01 -1.21249217923E-01

   8   8   1    8 O    -9.23891103276E-02 -4.01281015468E-01  3.83784108456E-01

   9   9   1    8 O     4.12193388200E-01  4.05768887717E-01  3.76289848938E-01

  10  10   1    8 O     1.14363173303E-01 -4.02268039458E-01 -1.24426529996E-01

  11  11   1    8 O    -3.85192077294E-01 -3.94506037965E-01 -4.07301750294E-01

  12  12   1    8 O     1.17466164295E-01 -1.06541714292E-01  3.87037002379E-01

  13  13   1    8 O     4.01465552637E-01  1.11729694551E-01 -1.13078870840E-01

  14  14   1    8 O    -8.70912153109E-02  3.99033410328E-01  7.50728134632E-02

  15  15   1    8 O    -8.36858763848E-02  9.57056409083E-02 -3.98094211106E-01

  16  16   1    8 O    -3.95598891731E-01 -9.02589453730E-02  9.04571827276E-02

  17  17   1    1 H     4.55088869497E-02  2.16179567218E-01  1.04986677556E-01

  18  18   1    1 H     2.20929753790E-01  1.21787801217E-01  2.58278369596E-02

  19  19   1    1 H     4.95342990619E-01 -1.25274701366E-02 -4.89461460540E-01

  20  20   1    1 H     4.86971380165E-01 -1.98839127687E-01 -3.99993430119E-01

  21  21   1    1 H    -1.26317744318E-02 -2.83679308803E-02 -2.34419057202E-02

  22  22   1    1 H    -1.01710469203E-01 -3.68328401074E-02 -2.11585355353E-01

  23  23   1    1 H     4.82284934052E-01 -4.71581786310E-01  7.85176804640E-03

  24  24   1    1 H     4.73550953072E-01 -2.82464646168E-01  1.01205654149E-01

  25  25   1    1 H     4.59270891351E-02  2.82937721835E-01 -4.01760635353E-01

  26  26   1    1 H     1.26243545527E-01  4.61579672557E-01 -3.11307164696E-01

  27  27   1    1 H    -4.50195321960E-01  2.22122955474E-01  3.70152577290E-01

  28  28   1    1 H    -3.71909730246E-01  4.38083419654E-02  2.75721232694E-01

  29  29   1    1 H    -2.76318989367E-01  3.89999424399E-01 -5.43760446155E-02

  30  30   1    1 H    -3.70628284912E-01  4.73198864086E-01 -2.26549547532E-01

  31  31   1    1 H    -1.54039118913E-02 -4.80905844671E-01  4.54591486718E-01

  32  32   1    1 H    -2.15071190097E-02 -2.92562848482E-01  3.71860345400E-01

  33  33   1    1 H     2.98665556883E-01  3.91485221032E-01  4.38902987955E-01

  34  34   1    1 H     3.93402697131E-01  4.80092278571E-01  2.71283346369E-01

  35  35   1    1 H     4.50692074144E-02 -2.89287934096E-01 -1.28258870241E-01

  36  36   1    1 H     2.21808318358E-01 -3.81607101722E-01 -5.02150954613E-02

  37  37   1    1 H    -2.75197627828E-01 -3.81208340063E-01 -4.76648551359E-01

  38  38   1    1 H    -4.61904666520E-01 -4.69103216783E-01 -4.87053439556E-01

  39  39   1    1 H     2.31783730432E-01 -1.11592798318E-01  4.52585898664E-01

  40  40   1    1 H     1.32145920479E-01 -3.02855340593E-02  2.83725918787E-01

  41  41   1    1 H     4.75524090487E-01  2.17744832086E-01 -1.30888861475E-01

  42  42   1    1 H     3.96306944644E-01  4.14469289304E-02 -2.26867261659E-01

  43  43   1    1 H    -1.03637583828E-01  4.70948996062E-01  1.86428497048E-01

  44  44   1    1 H    -1.02986418505E-02  4.73402511467E-01  4.22193075658E-04

  45  45   1    1 H    -1.93178386055E-01  1.15220081709E-01 -4.67507487960E-01

  46  46   1    1 H    -9.75240157940E-03  1.64461822048E-02 -4.76784924729E-01

  47  47   1    1 H    -2.84764871747E-01 -1.09131422442E-01  2.26748192807E-02

  48  48   1    1 H    -4.71407097497E-01 -1.50819919106E-02  1.37925295244E-02

 NUMBER OF SYMMETRY OPERATORS         :    1
 *******************************************************************************
 * GEOMETRY EDITING - INPUT COORDINATES ARE GIVEN IN ANGSTROM         
 *******************************************************************************

 GCALCO - MAX INDICES DIRECT LATTICE VECTOR    14    15    15
 NO.OF VECTORS CREATED 6999 STARS 3500 RMAX   167.93246 BOHR

 GEOMETRY FOR WAVE FUNCTION - DIMENSIONALITY OF THE SYSTEM    3
 (NON PERIODIC DIRECTION: LATTICE PARAMETER FORMALLY SET TO 500)
 *******************************************************************************
 LATTICE PARAMETERS (ANGSTROMS AND DEGREES) - BOHR = 0.5291772083 ANGSTROM
 PRIMITIVE CELL - CENTRING CODE 1/0 VOLUME=   420.292820 - DENSITY  1.139 g/cm^3
         A              B              C           ALPHA      BETA       GAMMA 
     7.50678178     7.47546256     7.49387101    91.828407  90.346088  89.482119
 *******************************************************************************
 ATOMS IN THE ASYMMETRIC UNIT   48 - ATOMS IN THE UNIT CELL:   48
     ATOM                 X/A                 Y/B                 Z/C    
 *******************************************************************************
      1 T   8 O     1.170013050678E-01  1.045205180122E-01  1.025914531741E-01
      2 T   8 O     4.176384080431E-01 -8.793445098127E-02 -4.166812365463E-01
      3 T   8 O    -8.764237819812E-02 -1.055802862993E-01 -1.023532471481E-01
      4 T   8 O     4.050491645362E-01 -3.934768364479E-01  8.450969695292E-02
      5 T   8 O     1.156996966287E-01  3.912342492441E-01 -4.241944308810E-01
      6 T   8 O    -3.781008207091E-01  1.137874206247E-01  3.896836554964E-01
      7 T   8 O    -3.895056039656E-01  3.995769579214E-01 -1.212492179235E-01
      8 T   8 O    -9.238911032765E-02 -4.012810154679E-01  3.837841084564E-01
      9 T   8 O     4.121933882000E-01  4.057688877173E-01  3.762898489385E-01
     10 T   8 O     1.143631733031E-01 -4.022680394583E-01 -1.244265299958E-01
     11 T   8 O    -3.851920772940E-01 -3.945060379654E-01 -4.073017502935E-01
     12 T   8 O     1.174661642952E-01 -1.065417142924E-01  3.870370023791E-01
     13 T   8 O     4.014655526367E-01  1.117296945508E-01 -1.130788708403E-01
     14 T   8 O    -8.709121531089E-02  3.990334103285E-01  7.507281346318E-02
     15 T   8 O    -8.368587638478E-02  9.570564090830E-02 -3.980942111059E-01
     16 T   8 O    -3.955988917310E-01 -9.025894537299E-02  9.045718272756E-02
     17 T   1 H     4.550888694971E-02  2.161795672184E-01  1.049866775560E-01
     18 T   1 H     2.209297537899E-01  1.217878012173E-01  2.582783695963E-02
     19 T   1 H     4.953429906194E-01 -1.252747013663E-02 -4.894614605399E-01
     20 T   1 H     4.869713801653E-01 -1.988391276871E-01 -3.999934301195E-01
     21 T   1 H    -1.263177443176E-02 -2.836793088027E-02 -2.344190572025E-02
     22 T   1 H    -1.017104692026E-01 -3.683284010737E-02 -2.115853553530E-01
     23 T   1 H     4.822849340515E-01 -4.715817863096E-01  7.851768046398E-03
     24 T   1 H     4.735509530723E-01 -2.824646461685E-01  1.012056541492E-01
     25 T   1 H     4.592708913511E-02  2.829377218352E-01 -4.017606353533E-01
     26 T   1 H     1.262435455270E-01  4.615796725570E-01 -3.113071646955E-01
     27 T   1 H    -4.501953219604E-01  2.221229554735E-01  3.701525772902E-01
     28 T   1 H    -3.719097302463E-01  4.380834196541E-02  2.757212326936E-01
     29 T   1 H    -2.763189893674E-01  3.899994243993E-01 -5.437604461550E-02
     30 T   1 H    -3.706282849124E-01  4.731988640856E-01 -2.265495475318E-01
     31 T   1 H    -1.540391189129E-02 -4.809058446714E-01  4.545914867182E-01
     32 T   1 H    -2.150711900975E-02 -2.925628484823E-01  3.718603453996E-01
     33 T   1 H     2.986655568832E-01  3.914852210325E-01  4.389029879547E-01
     34 T   1 H     3.934026971312E-01  4.800922785713E-01  2.712833463694E-01
     35 T   1 H     4.506920741441E-02 -2.892879340961E-01 -1.282588702412E-01
     36 T   1 H     2.218083183579E-01 -3.816071017215E-01 -5.021509546126E-02
     37 T   1 H    -2.751976278279E-01 -3.812083400625E-01 -4.766485513588E-01
     38 T   1 H    -4.619046665205E-01 -4.691032167827E-01 -4.870534395562E-01
     39 T   1 H     2.317837304320E-01 -1.115927983175E-01  4.525858986637E-01
     40 T   1 H     1.321459204789E-01 -3.028553405934E-02  2.837259187874E-01
     41 T   1 H     4.755240904866E-01  2.177448320857E-01 -1.308888614753E-01
     42 T   1 H     3.963069446437E-01  4.144692893042E-02 -2.268672616589E-01
     43 T   1 H    -1.036375838282E-01  4.709489960622E-01  1.864284970479E-01
     44 T   1 H    -1.029864185047E-02  4.734025114667E-01  4.221930756580E-04
     45 T   1 H    -1.931783860553E-01  1.152200817092E-01 -4.675074879601E-01
     46 T   1 H    -9.752401579403E-03  1.644618220483E-02 -4.767849247295E-01
     47 T   1 H    -2.847648717469E-01 -1.091314224425E-01  2.267481928068E-02
     48 T   1 H    -4.714070974973E-01 -1.508199191056E-02  1.379252952442E-02

 T = ATOM BELONGING TO THE ASYMMETRIC UNIT

 ****    1 SYMMOPS - TRANSLATORS IN FRACTIONAL UNITS
 **** MATRICES AND TRANSLATORS IN THE CRYSTALLOGRAPHIC REFERENCE FRAME
   V INV                    ROTATION MATRICES                   TRANSLATORS
   1   1  1.00  0.00  0.00  0.00  1.00  0.00 -0.00 -0.00  1.00  0.00  0.00  0.00

 DIRECT LATTICE VECTORS CARTESIAN COMPONENTS (ANGSTROM)
          X                    Y                    Z
   0.750647513525E+01   0.678508391497E-01   0.000000000000E+00
   0.000000000000E+00   0.747546256000E+01   0.000000000000E+00
  -0.431061311113E-01  -0.239101743313E+00   0.748993157060E+01


 CARTESIAN COORDINATES - PRIMITIVE CELL
 *******************************************************************************
 *      ATOM          X(ANGSTROM)         Y(ANGSTROM)         Z(ANGSTROM)
 *******************************************************************************
    1     8 O     8.738450666521E-01  7.647480605796E-01  7.684029640028E-01
    2     8 O     3.152953841516E+00 -5.293843695338E-01 -3.120913948486E+00
    3     8 O    -6.534732802474E-01 -7.707352463835E-01 -7.666188171683E-01
    4     8 O     3.036848596069E+00 -2.934144849251E+00  6.329718472298E-01
    5     8 O     8.867822766539E-01  3.033932931847E+00 -3.177187259930E+00
    6     8 O    -2.855002164017E+00  7.317851033409E-01  2.918703913851E+00
    7     8 O    -2.918587546524E+00  2.989585206078E+00 -9.081483452362E-01
    8     8 O    -7.100600075402E-01 -3.097793335221E+00  2.874516710224E+00
    9     8 O     3.077899019875E+00  2.971306236553E+00  2.818385219262E+00
   10     8 O     8.638278631040E-01 -2.969629430542E+00 -9.319461952362E-01
   11     8 O    -2.873877547854E+00 -2.877864163633E+00 -3.050662238285E+00
   12     8 O     8.650731737459E-01 -8.810196404473E-01  2.898880663111E+00
   13     8 O     3.018465581160E+00  8.895082782406E-01 -8.469530046750E-01
   14     8 O    -6.569841407702E-01  2.959100066484E+00  5.622902356519E-01
   15     8 O    -6.110256489956E-01  8.049507983312E-01 -2.981698399837E+00
   16     8 O    -2.973452503491E+00 -7.231975536968E-01  6.775181086990E-01
   17     1 H     3.370857588334E-01  1.594027579518E+00  7.863430307195E-01
   18     1 H     1.657290365335E+00  9.192349366094E-01  1.934487314443E-01
   19     1 H     3.739378632398E+00  5.699189210206E-02 -3.666032845892E+00
   20     1 H     3.672680726033E+00 -1.357733911247E+00 -2.995923420286E+00
   21     1 H    -9.380961082465E-02 -2.073154811710E-01 -1.755782697292E-01
   22     1 H    -7.543664819951E-01 -2.316532305625E-01 -1.584759832936E+00
   23     1 H     3.619921406222E+00 -3.494445921479E+00  5.880920537577E-02
   24     1 H     3.550335870315E+00 -2.103621505750E+00  7.580234241357E-01
   25     1 H     3.620688992501E-01  2.214268206236E+00 -3.009159666558E+00
   26     1 H     9.610632829418E-01  3.533521376943E+00 -2.331669361008E+00
   27     1 H    -3.395335835831E+00  1.541421580461E+00  2.772417474586E+00
   28     1 H    -2.803616418259E+00  2.363278054876E-01  2.065133165438E+00
   29     1 H    -2.071837682176E+00  2.909679027279E+00 -4.072728532502E-01
   30     1 H    -2.772346330617E+00  3.566401343524E+00 -1.696840608364E+00
   31     1 H    -1.352247618261E-01 -3.704732422044E+00  3.404859128098E+00
   32     1 H    -1.774721148815E-01 -2.277414353203E+00  2.785208540864E+00
   33     1 H     2.223006166756E+00  2.841855351716E+00  3.287353345914E+00
   34     1 H     2.941373588660E+00  3.550740235880E+00  2.031893700551E+00
   35     1 H     3.438396284986E-01 -2.128836217382E+00 -9.606501614295E-01
   36     1 H     1.667163205035E+00 -2.825633204153E+00 -3.761076288162E-01
   37     1 H    -2.045217675622E+00 -2.754413564100E+00 -3.570065032905E+00
   38     1 H    -3.446280904670E+00 -3.421648826581E+00 -3.647996933503E+00
   39     1 H     1.720369582157E+00 -9.266951425463E-01  3.389837410811E+00
   40     1 H     9.797197396450E-01 -2.852715261806E-01  2.125087716524E+00
   41     1 H     3.575151873875E+00  1.691303803425E+00 -9.803486158042E-01
   42     1 H     2.984647595822E+00  3.909690819645E-01 -1.699220265435E+00
   43     1 H    -7.859891573207E-01  3.468954312055E+00  1.396336685699E+00
   44     1 H    -7.732469808750E-02  3.538103031687E+00  3.162197246261E-03
   45     1 H    -1.429936312521E+00  9.599979467608E-01 -3.501599093566E+00
   46     1 H    -5.265380648751E-02  2.362812173843E-01 -3.571086460119E+00
   47     1 H    -2.138557852894E+00 -8.405509869162E-01  1.698328447881E-01
   48     1 H    -3.539200198531E+00 -1.480280508579E-01  1.033051023234E-01

 *******************************************************************************
 STARTING BASIS SET HANDLING 
 *******************************************************************************

 Loading internal basis set: DEF2-MSVP           

 Please cite in your publication:
 Fully Optimized Contracted Gaussian Basis Sets for Atoms Li to Kr. A. Schäfer, 
 H. Horn and R. Ahlrichs; J. Chem. Phys. 97, 2571 (1992).                       
                                                                                
                    
 S. Grimme, J. G. Brandenburg, C. Bannwarth, and A. Hansen, J. Chem. Phys., 143,
  054107 (2015).                                                                
                                                                                
                    

 *******************************************************************************
 LOCAL ATOMIC FUNCTIONS BASIS SET
 *******************************************************************************
   ATOM   X(AU)   Y(AU)   Z(AU)  N. TYPE  EXPONENT  S COEF   P COEF   D/F/G COEF
 *******************************************************************************
   1 O    1.651   1.445   1.452
                                  1 S  
                                         6.773E+03 1.727E-03 0.000E+00 0.000E+00
                                         1.017E+03 1.325E-02 0.000E+00 0.000E+00
                                         2.313E+02 6.603E-02 0.000E+00 0.000E+00
                                         6.501E+01 2.353E-01 0.000E+00 0.000E+00
                                         2.050E+01 5.498E-01 0.000E+00 0.000E+00
                                  2 S  
                                         6.716E+00 1.000E+00 0.000E+00 0.000E+00
                                  3 S  
                                         1.147E+00 1.000E+00 0.000E+00 0.000E+00
                                  4 S  
                                         3.342E-01 1.000E+00 0.000E+00 0.000E+00
                           5-     7 P  
                                         1.769E+01 0.000E+00 4.359E-02 0.000E+00
                                         3.854E+00 0.000E+00 2.318E-01 0.000E+00
                                         1.047E+00 0.000E+00 5.146E-01 0.000E+00
                           8-    10 P  
                                         2.759E-01 0.000E+00 1.000E+00 0.000E+00
                          11-    15 D  
                                         8.000E-01 0.000E+00 0.000E+00 1.000E+00
   2 O    5.958  -1.000  -5.898
   3 O   -1.235  -1.456  -1.449
   4 O    5.739  -5.545   1.196
   5 O    1.676   5.733  -6.004
   6 O   -5.395   1.383   5.516
   7 O   -5.515   5.649  -1.716
   8 O   -1.342  -5.854   5.432
   9 O    5.816   5.615   5.326
  10 O    1.632  -5.612  -1.761
  11 O   -5.431  -5.438  -5.765
  12 O    1.635  -1.665   5.478
  13 O    5.704   1.681  -1.601
  14 O   -1.242   5.592   1.063
  15 O   -1.155   1.521  -5.635
  16 O   -5.619  -1.367   1.280
  17 H    0.637   3.012   1.486
                                241 S  
                                         1.874E+01 1.968E-02 0.000E+00 0.000E+00
                                         2.826E+00 1.380E-01 0.000E+00 0.000E+00
                                         6.401E-01 4.783E-01 0.000E+00 0.000E+00
                                242 S  
                                         1.756E-01 1.000E+00 0.000E+00 0.000E+00
  18 H    3.132   1.737   0.366
  19 H    7.066   0.108  -6.928
  20 H    6.940  -2.566  -5.661
  21 H   -0.177  -0.392  -0.332
  22 H   -1.426  -0.438  -2.995
  23 H    6.841  -6.604   0.111
  24 H    6.709  -3.975   1.432
  25 H    0.684   4.184  -5.686
  26 H    1.816   6.677  -4.406
  27 H   -6.416   2.913   5.239
  28 H   -5.298   0.447   3.903
  29 H   -3.915   5.498  -0.770
  30 H   -5.239   6.740  -3.207
  31 H   -0.256  -7.001   6.434
  32 H   -0.335  -4.304   5.263
  33 H    4.201   5.370   6.212
  34 H    5.558   6.710   3.840
  35 H    0.650  -4.023  -1.815
  36 H    3.150  -5.340  -0.711
  37 H   -3.865  -5.205  -6.746
  38 H   -6.513  -6.466  -6.894
  39 H    3.251  -1.751   6.406
  40 H    1.851  -0.539   4.016
  41 H    6.756   3.196  -1.853
  42 H    5.640   0.739  -3.211
  43 H   -1.485   6.555   2.639
  44 H   -0.146   6.686   0.006
  45 H   -2.702   1.814  -6.617
  46 H   -0.100   0.447  -6.748
  47 H   -4.041  -1.588   0.321
  48 H   -6.688  -0.280   0.195

 *******************************************************************************
 FINISHED BASIS SET HANDLING 
 *******************************************************************************

 INFORMATION **** SET_MPP **** PCRYSTAL CALCULATION
 INFORMATION **** READM2 **** NEW DEFAULT: FOCK/KS MATRIX MIXING SET TO 30 %
 INFORMATION **** READM2 **** NEW DEFAULT: FULL DIRECT SCF MODE
 INFORMATION **** READM2 **** NEW DEFAULT: COULOMB BIPOLAR BUFFER SET TO 32 Mb
 INFORMATION **** READM2 **** NEW DEFAULT: EXCHANGE BIPOLAR BUFFER SET TO 32 Mb

 *******************************************************************************
 NEW DEFAULT: DFT INTEGRATION GRID INCREASED TO XLGRID
 NEW DEFAULT: DIIS ACCELERATOR ACTIVE
 USE KEYWORD NODIIS TO TURN IT OFF
 *******************************************************************************

 INFORMATION **** RDDFTP **** HSE-3c calculation
 INFORMATION **** RDDFTP **** HSE screened hybrid functional combined with D3 and gCP

PLEASE CITE:
(1) HSE-3c Reference
 J. G. Brandenburg, E. Caldeweyer, and S. Grimme, 
 Phys. Chem. Chem. Phys. 18, 15519 (2016)
(2) DFT-D3 Reference
 S. Grimme, J. Antony, S. Ehrlich,
 and H. Krieg, J. Chem. Phys. 132, 154104 (2010)
(3) gCP Reference
 H. Kruse and S. Grimme J. Chem. Phys, 136, 154101 (2012)
 J. G. Brandenburg, M. Alessio, B. Civalleri, M. F. Peintinger
 T. Bredow, and S. Grimme, J. Phys. Chem. A, 117, 9282 (2013) 

 WARNING **** RDDFTP **** HSE3c-HJS ACTIVE
 RANGE SEPARATION - OMEGA:   0.110000000000000     
 WARNING **** RDDFTP **** HSE-3c has to be combined with def2-mSVP basis set
 WARNING **** RDDFTP **** Note: Harmonic frequencies are scaled by 0.95
 WARNING **** RDDFTP **** as recommended in original publication
 INFORMATION **** BIPOSIZE **** COULOMB BIPOLAR BUFFER SET TO    60000000
 INFORMATION **** EXCHSIZE **** EXCHANGE BIPOLAR BUFFER SIZE SET TO    40000000
 *******************************************************************************
 N. OF ATOMS PER CELL        48  COULOMB OVERLAP TOL         (T1) 10**   -6
 NUMBER OF SHELLS           176  COULOMB PENETRATION TOL     (T2) 10**   -6
 NUMBER OF AO               304  EXCHANGE OVERLAP TOL        (T3) 10**   -6
 N. OF ELECTRONS PER CELL   160  EXCHANGE PSEUDO OVP (F(G))  (T4) 10**   -6
 CORE ELECTRONS PER CELL     32  EXCHANGE PSEUDO OVP (P(G))  (T5) 10**  -12
 N. OF SYMMETRY OPERATORS     1  POLE ORDER IN MONO ZONE                  4
 *******************************************************************************
 TYPE OF CALCULATION :  RESTRICTED CLOSED SHELL
 KOHN-SHAM HAMILTONIAN

 (EXCHANGE)[CORRELATION] FUNCTIONAL:(HSE-3c)[PBEh-3c]

 RANGE-SEPARATED HYBRID FUNCTIONAL 
 OMEGA (SHORT-RANGE)[LONG-RANGE]:(    0.1100)[    0.0000]

 HYBRID EXCHANGE - PERCENTAGE OF FOCK EXCHANGE    42.0000

 CAPPA:IS1  2;IS2  2;IS3  2; K PTS MONK NET   8; SYMMOPS:K SPACE   2;G SPACE   1

 *******************************************************************************
 MAX NUMBER OF SCF CYCLES      50  CONVERGENCE ON DELTAP        10**-16
 WEIGHT OF F(I) IN F(I+1)      30% CONVERGENCE ON ENERGY        10**- 6
 S(K) EIGENV. THRESHOLD  10*10.**-4
 SHRINK. FACT.(MONKH.)    2  2  2  NUMBER OF K POINTS IN THE IBZ      8
 SHRINKING FACTOR(GILAT NET)    2  NUMBER OF K POINTS(GILAT NET)      8
 *******************************************************************************
 *** K POINTS COORDINATES (OBLIQUE COORDINATES IN UNITS OF IS =  2)
   1-R(  0  0  0)   2-R(  1  0  0)   3-R(  0  1  0)   4-R(  1  1  0)
   5-R(  0  0  1)   6-R(  1  0  1)   7-R(  0  1  1)   8-R(  1  1  1)

 DIRECT LATTICE VECTORS COMPON. (A.U.)     RECIP. LATTICE VECTORS COMPON. (A.U.) 
        X            Y            Z              X            Y            Z
   14.1851822    0.1282195    0.0000000      0.4429400    0.0000000    0.0025492
    0.0000000   14.1265770    0.0000000     -0.0040203    0.4447776    0.0141755
   -0.0814588   -0.4518368   14.1539194      0.0000000    0.0000000    0.4439184

 DISK SPACE FOR EIGENVECTORS (FTN 10)      739328 REALS

 SYMMETRY ADAPTION OF THE BLOCH FUNCTIONS DISABLED
 TTTTTTTTTTTTTTTTTTTTTTTTTTTTTT gordsh1     TELAPSE        0.16 TCPU        0.04

 MATRIX SIZE: P(G)  173678, F(G)   31315, P(G) IRR   87487, F(G) IRR   31571
 MAX G-VECTOR INDEX FOR 1- AND 2-ELECTRON INTEGRALS  69

 TTTTTTTTTTTTTTTTTTTTTTTTTTTTTT INPUT       TELAPSE        0.20 TCPU        0.08

 NEIGHBORS OF THE NON-EQUIVALENT ATOMS

 N = NUMBER OF NEIGHBORS AT DISTANCE R
    ATOM  N     R/ANG      R/AU   NEIGHBORS (ATOM LABELS AND CELL INDICES)
   1 O    1     0.9840     1.8595   18 H    0 0 0
   1 O    1     0.9880     1.8670   17 H    0 0 0
   1 O    1     1.6650     3.1465   21 H    0 0 0
   1 O    1     1.7188     3.2481   40 H    0 0 0
   1 O    1     2.6546     5.0164    3 O    0 0 0
   1 O    1     2.6835     5.0711   14 O    0 0 0

   2 O    1     0.9859     1.8630   20 H    0 0 0
   2 O    1     0.9924     1.8754   19 H    0 0 0
   2 O    1     1.7019     3.2162   42 H    0 0 0
   2 O    1     1.7072     3.2261   39 H    0 0-1
   2 O    1     2.6342     4.9779    6 O    1 0-1
   2 O    1     2.6837     5.0715   13 O    0 0 0

   3 O    1     0.9850     1.8613   22 H    0 0 0
   3 O    1     0.9899     1.8707   21 H    0 0 0
   3 O    1     1.6961     3.2051   35 H    0 0 0
   3 O    1     1.7571     3.3204   47 H    0 0 0
   3 O    1     2.6546     5.0164    1 O    0 0 0
   3 O    1     2.6767     5.0582   10 O    0 0 0

   4 O    1     0.9844     1.8603   24 H    0 0 0
   4 O    1     0.9918     1.8741   23 H    0 0 0
   4 O    1     1.7047     3.2214   36 H    0 0 0
   4 O    1     1.7168     3.2442   34 H    0-1 0
   4 O    1     2.6425     4.9936    7 O    1-1 0
   4 O    1     2.6781     5.0609   10 O    0 0 0

   5 O    1     0.9849     1.8612   26 H    0 0 0
   5 O    1     0.9876     1.8663   25 H    0 0 0
   5 O    1     1.6537     3.1251   31 H    0 1-1
   5 O    1     1.7194     3.2491   33 H    0 0-1
   5 O    1     2.6435     4.9954    8 O    0 1-1
   5 O    1     2.6848     5.0735   10 O    0 1 0

   6 O    1     0.9843     1.8601   27 H    0 0 0
   6 O    1     0.9883     1.8676   28 H    0 0 0
   6 O    1     1.6418     3.1026   19 H   -1 0 1
   6 O    1     1.7476     3.3024   45 H    0 0 1
   6 O    1     2.6342     4.9779    2 O   -1 0 1
   6 O    1     2.6747     5.0544   16 O    0 0 0

   7 O    1     0.9870     1.8652   29 H    0 0 0
   7 O    1     0.9880     1.8670   30 H    0 0 0
   7 O    1     1.6507     3.1195   23 H   -1 1 0
   7 O    1     1.7021     3.2165   41 H   -1 0 0
   7 O    1     2.6425     4.9936    4 O   -1 1 0
   7 O    1     2.6771     5.0589   13 O   -1 0 0

   8 O    1     0.9822     1.8560   32 H    0 0 0
   8 O    1     0.9900     1.8708   31 H    0 0 0
   8 O    1     1.7330     3.2749   37 H    0 0 1
   8 O    1     1.7368     3.2821   43 H    0-1 0
   8 O    1     2.6435     4.9954    5 O    0-1 1
   8 O    1     2.7054     5.1125   11 O    0 0 1

   9 O    1     0.9836     1.8588   33 H    0 0 0
   9 O    1     0.9864     1.8640   34 H    0 0 0
   9 O    1     1.6614     3.1395   38 H    1 1 1
   9 O    1     1.7102     3.2318   27 H    1 0 0
   9 O    1     2.6513     5.0102   11 O    1 1 1
   9 O    1     2.6837     5.0715    6 O    1 0 0

  10 O    1     0.9874     1.8660   36 H    0 0 0
  10 O    1     0.9890     1.8690   35 H    0 0 0
  10 O    1     1.6422     3.1032   44 H    0-1 0
  10 O    1     1.7071     3.2259   26 H    0-1 0
  10 O    1     2.6340     4.9776   14 O    0-1 0
  10 O    1     2.6767     5.0582    3 O    0 0 0

  11 O    1     0.9857     1.8628   37 H    0 0 0
  11 O    1     0.9900     1.8709   38 H    0 0 0
  11 O    1     1.7048     3.2217   30 H    0-1 0
  11 O    1     1.7417     3.2914   20 H   -1 0 0
  11 O    1     2.6513     5.0102    9 O   -1-1-1
  11 O    1     2.6792     5.0629    7 O    0-1 0

  12 O    1     0.9833     1.8581   40 H    0 0 0
  12 O    1     0.9872     1.8656   39 H    0 0 0
  12 O    1     1.6537     3.1251   46 H    0 0 1
  12 O    1     1.7464     3.3001   32 H    0 0 0
  12 O    1     2.6441     4.9967   15 O    0 0 1
  12 O    1     2.6857     5.0752    2 O    0 0 1

  13 O    1     0.9852     1.8617   41 H    0 0 0
  13 O    1     0.9879     1.8670   42 H    0 0 0
  13 O    1     1.6564     3.1301   48 H    1 0 0
  13 O    1     1.7135     3.2381   18 H    0 0 0
  13 O    1     2.6466     5.0013   16 O    1 0 0
  13 O    1     2.6771     5.0589    7 O    1 0 0

  14 O    1     0.9860     1.8633   43 H    0 0 0
  14 O    1     0.9919     1.8744   44 H    0 0 0
  14 O    1     1.7035     3.2191   17 H    0 0 0
  14 O    1     1.7159     3.2426   29 H    0 0 0
  14 O    1     2.6340     4.9776   10 O    0 1 0
  14 O    1     2.6835     5.0711    1 O    0 0 0

  15 O    1     0.9823     1.8563   45 H    0 0 0
  15 O    1     0.9912     1.8732   46 H    0 0 0
  15 O    1     1.7128     3.2368   25 H    0 0 0
  15 O    1     1.7454     3.2984   22 H    0 0 0
  15 O    1     2.6441     4.9967   12 O    0 0-1
  15 O    1     2.6926     5.0882    5 O    0 0 0

  16 O    1     0.9842     1.8598   47 H    0 0 0
  16 O    1     0.9903     1.8713   48 H    0 0 0
  16 O    1     1.6956     3.2042   28 H    0 0 0
  16 O    1     1.7520     3.3109   24 H   -1 0 0
  16 O    1     2.6466     5.0013   13 O   -1 0 0
  16 O    1     2.6747     5.0544    6 O    0 0 0

  17 H    1     0.9880     1.8670    1 O    0 0 0
  17 H    1     1.5968     3.0175   18 H    0 0 0
  17 H    1     1.7035     3.2191   14 O    0 0 0
  17 H    1     2.0871     3.9440   21 H    0 0 0
  17 H    1     2.1365     4.0374   44 H    0 0 0
  17 H    1     2.2691     4.2879   43 H    0 0 0

  18 H    1     0.9840     1.8595    1 O    0 0 0
  18 H    1     1.5968     3.0175   17 H    0 0 0
  18 H    1     1.7135     3.2381   13 O    0 0 0
  18 H    1     2.1146     3.9961   21 H    0 0 0
  18 H    1     2.3713     4.4811   42 H    0 0 0
  18 H    1     2.3751     4.4883   40 H    0 0 0

  19 H    1     0.9924     1.8754    2 O    0 0 0
  19 H    1     1.5668     2.9609   20 H    0 0 0
  19 H    1     1.6418     3.1026    6 O    1 0-1
  19 H    1     2.0840     3.9381   28 H    1 0-1
  19 H    1     2.1182     4.0028   27 H    1 0-1
  19 H    1     2.1330     4.0307   42 H    0 0 0

  20 H    1     0.9859     1.8630    2 O    0 0 0
  20 H    1     1.5668     2.9609   19 H    0 0 0
  20 H    1     1.7417     3.2914   11 O    1 0 0
  20 H    1     2.1353     4.0352   38 H    1 0 0
  20 H    1     2.2832     4.3145   42 H    0 0 0
  20 H    1     2.3010     4.3482   37 H    1 0 0

  21 H    1     0.9899     1.8707    3 O    0 0 0
  21 H    1     1.5565     2.9414   22 H    0 0 0
  21 H    1     1.6650     3.1465    1 O    0 0 0
  21 H    1     2.0871     3.9440   17 H    0 0 0
  21 H    1     2.1146     3.9961   18 H    0 0 0
  21 H    1     2.1213     4.0088   35 H    0 0 0

  22 H    1     0.9850     1.8613    3 O    0 0 0
  22 H    1     1.5565     2.9414   21 H    0 0 0
  22 H    1     1.7454     3.2984   15 O    0 0 0
  22 H    1     2.1580     4.0780   46 H    0 0 0
  22 H    1     2.2792     4.3071   35 H    0 0 0
  22 H    1     2.3163     4.3772   47 H    0 0 0

  23 H    1     0.9918     1.8741    4 O    0 0 0
  23 H    1     1.5582     2.9447   24 H    0 0 0
  23 H    1     1.6507     3.1195    7 O    1-1 0
  23 H    1     2.1081     3.9837   30 H    1-1 0
  23 H    1     2.1094     3.9863   36 H    0 0 0
  23 H    1     2.1254     4.0165   29 H    1-1 0

  24 H    1     0.9844     1.8603    4 O    0 0 0
  24 H    1     1.5582     2.9447   23 H    0 0 0
  24 H    1     1.7520     3.3109   16 O    1 0 0
  24 H    1     2.1672     4.0954   48 H    1 0 0
  24 H    1     2.3043     4.3546   34 H    0-1 0
  24 H    1     2.3138     4.3725   36 H    0 0 0

  25 H    1     0.9876     1.8663    5 O    0 0 0
  25 H    1     1.5994     3.0225   26 H    0 0 0
  25 H    1     1.7128     3.2368   15 O    0 0 0
  25 H    1     2.0977     3.9640   46 H    0 0 0
  25 H    1     2.1419     4.0477   31 H    0 1-1
  25 H    1     2.2421     4.2369   45 H    0 0 0

  26 H    1     0.9849     1.8612    5 O    0 0 0
  26 H    1     1.5994     3.0225   25 H    0 0 0
  26 H    1     1.7071     3.2259   10 O    0 1 0
  26 H    1     2.1001     3.9686   31 H    0 1-1
  26 H    1     2.3256     4.3947   33 H    0 0-1
  26 H    1     2.3554     4.4511   35 H    0 1 0

  27 H    1     0.9843     1.8601    6 O    0 0 0
  27 H    1     1.5980     3.0198   28 H    0 0 0
  27 H    1     1.7102     3.2318    9 O   -1 0 0
  27 H    1     2.1182     4.0028   19 H   -1 0 1
  27 H    1     2.3129     4.3707   33 H   -1 0 0
  27 H    1     2.3845     4.5061   34 H   -1 0 0

  28 H    1     0.9883     1.8676    6 O    0 0 0
  28 H    1     1.5980     3.0198   27 H    0 0 0
  28 H    1     1.6956     3.2042   16 O    0 0 0
  28 H    1     2.0840     3.9381   19 H   -1 0 1
  28 H    1     2.1302     4.0254   48 H    0 0 0
  28 H    1     2.2791     4.3068   47 H    0 0 0

  29 H    1     0.9870     1.8652    7 O    0 0 0
  29 H    1     1.6078     3.0383   30 H    0 0 0
  29 H    1     1.7159     3.2426   14 O    0 0 0
  29 H    1     2.1254     4.0165   23 H   -1 1 0
  29 H    1     2.1311     4.0271   44 H    0 0 0
  29 H    1     2.2846     4.3172   43 H    0 0 0

  30 H    1     0.9880     1.8670    7 O    0 0 0
  30 H    1     1.6078     3.0383   29 H    0 0 0
  30 H    1     1.7048     3.2217   11 O    0 1 0
  30 H    1     2.1081     3.9837   23 H   -1 1 0
  30 H    1     2.1210     4.0082   38 H    0 1 0
  30 H    1     2.3175     4.3795   37 H    0 1 0

  31 H    1     0.9900     1.8708    8 O    0 0 0
  31 H    1     1.5566     2.9415   32 H    0 0 0
  31 H    1     1.6537     3.1251    5 O    0-1 1
  31 H    1     2.1001     3.9686   26 H    0-1 1
  31 H    1     2.1328     4.0304   43 H    0-1 0
  31 H    1     2.1414     4.0467   37 H    0 0 1

  32 H    1     0.9822     1.8560    8 O    0 0 0
  32 H    1     1.5566     2.9415   31 H    0 0 0
  32 H    1     1.7464     3.3001   12 O    0 0 0
  32 H    1     2.2998     4.3460   43 H    0-1 0
  32 H    1     2.3349     4.4123   37 H    0 0 1
  32 H    1     2.3966     4.5288   40 H    0 0 0

  33 H    1     0.9836     1.8588    9 O    0 0 0
  33 H    1     1.6108     3.0440   34 H    0 0 0
  33 H    1     1.7194     3.2491    5 O    0 0 1
  33 H    1     2.1469     4.0571   38 H    1 1 1
  33 H    1     2.3129     4.3707   27 H    1 0 0
  33 H    1     2.3256     4.3947   26 H    0 0 1

  34 H    1     0.9864     1.8640    9 O    0 0 0
  34 H    1     1.6108     3.0440   33 H    0 0 0
  34 H    1     1.7168     3.2442    4 O    0 1 0
  34 H    1     2.1304     4.0259   23 H    0 1 0
  34 H    1     2.1316     4.0281   38 H    1 1 1
  34 H    1     2.3043     4.3546   24 H    0 1 0

  35 H    1     0.9890     1.8690   10 O    0 0 0
  35 H    1     1.6057     3.0344   36 H    0 0 0
  35 H    1     1.6961     3.2051    3 O    0 0 0
  35 H    1     2.0921     3.9536   44 H    0-1 0
  35 H    1     2.1213     4.0088   21 H    0 0 0
  35 H    1     2.2792     4.3071   22 H    0 0 0

  36 H    1     0.9874     1.8660   10 O    0 0 0
  36 H    1     1.6057     3.0344   35 H    0 0 0
  36 H    1     1.7047     3.2214    4 O    0 0 0
  36 H    1     2.1031     3.9743   44 H    0-1 0
  36 H    1     2.1094     3.9863   23 H    0 0 0
  36 H    1     2.3138     4.3725   24 H    0 0 0

  37 H    1     0.9857     1.8628   11 O    0 0 0
  37 H    1     1.5538     2.9362   38 H    0 0 0
  37 H    1     1.7330     3.2749    8 O    0 0-1
  37 H    1     2.1414     4.0467   31 H    0 0-1
  37 H    1     2.3010     4.3482   20 H   -1 0 0
  37 H    1     2.3175     4.3795   30 H    0-1 0

  38 H    1     0.9900     1.8709   11 O    0 0 0
  38 H    1     1.5538     2.9362   37 H    0 0 0
  38 H    1     1.6614     3.1395    9 O   -1-1-1
  38 H    1     2.1210     4.0082   30 H    0-1 0
  38 H    1     2.1316     4.0281   34 H   -1-1-1
  38 H    1     2.1353     4.0352   20 H   -1 0 0

  39 H    1     0.9872     1.8656   12 O    0 0 0
  39 H    1     1.5999     3.0233   40 H    0 0 0
  39 H    1     1.7072     3.2261    2 O    0 0 1
  39 H    1     2.1052     3.9782   46 H    0 0 1
  39 H    1     2.1557     4.0737   19 H    0 0 1
  39 H    1     2.3051     4.3559   20 H    0 0 1

  40 H    1     0.9833     1.8581   12 O    0 0 0
  40 H    1     1.5999     3.0233   39 H    0 0 0
  40 H    1     1.7188     3.2481    1 O    0 0 0
  40 H    1     2.1105     3.9882   46 H    0 0 1
  40 H    1     2.3751     4.4883   18 H    0 0 0
  40 H    1     2.3952     4.5263   17 H    0 0 0

  41 H    1     0.9852     1.8617   13 O    0 0 0
  41 H    1     1.5989     3.0214   42 H    0 0 0
  41 H    1     1.7021     3.2165    7 O    1 0 0
  41 H    1     2.1133     3.9936   48 H    1 0 0
  41 H    1     2.3325     4.4078   29 H    1 0 0
  41 H    1     2.3731     4.4845   30 H    1 0 0

  42 H    1     0.9879     1.8670   13 O    0 0 0
  42 H    1     1.5989     3.0214   41 H    0 0 0
  42 H    1     1.7019     3.2162    2 O    0 0 0
  42 H    1     2.1063     3.9804   48 H    1 0 0
  42 H    1     2.1330     4.0307   19 H    0 0 0
  42 H    1     2.2832     4.3145   20 H    0 0 0

  43 H    1     0.9860     1.8633   14 O    0 0 0
  43 H    1     1.5646     2.9566   44 H    0 0 0
  43 H    1     1.7368     3.2821    8 O    0 1 0
  43 H    1     2.1328     4.0304   31 H    0 1 0
  43 H    1     2.2691     4.2879   17 H    0 0 0
  43 H    1     2.2846     4.3172   29 H    0 0 0

  44 H    1     0.9919     1.8744   14 O    0 0 0
  44 H    1     1.5646     2.9566   43 H    0 0 0
  44 H    1     1.6422     3.1032   10 O    0 1 0
  44 H    1     2.0921     3.9536   35 H    0 1 0
  44 H    1     2.1031     3.9743   36 H    0 1 0
  44 H    1     2.1311     4.0271   29 H    0 0 0

  45 H    1     0.9823     1.8563   15 O    0 0 0
  45 H    1     1.5574     2.9431   46 H    0 0 0
  45 H    1     1.7476     3.3024    6 O    0 0-1
  45 H    1     2.2421     4.2369   25 H    0 0 0
  45 H    1     2.3560     4.4522   22 H    0 0 0
  45 H    1     2.3883     4.5132   28 H    0 0-1

  46 H    1     0.9912     1.8732   15 O    0 0 0
  46 H    1     1.5574     2.9431   45 H    0 0 0
  46 H    1     1.6537     3.1251   12 O    0 0-1
  46 H    1     2.0977     3.9640   25 H    0 0 0
  46 H    1     2.1052     3.9782   39 H    0 0-1
  46 H    1     2.1105     3.9882   40 H    0 0-1

  47 H    1     0.9842     1.8598   16 O    0 0 0
  47 H    1     1.5639     2.9554   48 H    0 0 0
  47 H    1     1.7571     3.3204    3 O    0 0 0
  47 H    1     2.1682     4.0974   21 H    0 0 0
  47 H    1     2.2791     4.3068   28 H    0 0 0
  47 H    1     2.3163     4.3772   22 H    0 0 0

  48 H    1     0.9903     1.8713   16 O    0 0 0
  48 H    1     1.5639     2.9554   47 H    0 0 0
  48 H    1     1.6564     3.1301   13 O   -1 0 0
  48 H    1     2.1063     3.9804   42 H   -1 0 0
  48 H    1     2.1133     3.9936   41 H   -1 0 0
  48 H    1     2.1302     4.0254   28 H    0 0 0


 SYMMETRY ALLOWED INTERNAL DEGREE(S) OF FREEDOM: 141
 TTTTTTTTTTTTTTTTTTTTTTTTTTTTTT SYMM        TELAPSE        0.21 TCPU        0.09
 TTTTTTTTTTTTTTTTTTTTTTTTTTTTTT INT_SCREEN  TELAPSE        0.21 TCPU        0.10

 DFT PARAMETERS

     ATOM       ELECTRONS   NET CHARGE   R(ANGSTROM)
   1   8  O       8.0000      0.0000     0.74000000
  17   1  H       1.0000      0.0000     1.11000000

 SIZE OF GRID=    1084673
 TTTTTTTTTTTTTTTTTTTTTTTTTTTTTT MAKE_GRID2  TELAPSE       14.07 TCPU       13.85
 BECKE WEIGHT FUNCTION
 RADSAFE =     2.00
 TOLERANCES - DENSITY:10**- 6; POTENTIAL:10**- 9; GRID WGT:10**-14

 RADIAL INTEGRATION  - INTERVALS (POINTS,UPPER LIMIT):            1( 75,  4.0*R)

 ANGULAR INTEGRATION - INTERVALS (ACCURACY LEVEL [N. POINTS] UPPER LIMIT):
  1(  4[  86]   0.2)  2(  8[ 194]   0.5)  3( 12[ 350]   0.9)  4( 16[ 974]   3.5)
  5( 12[ 350]9999.0)
 TTTTTTTTTTTTTTTTTTTTTTTTTTTTTT INT_CALC    TELAPSE       14.11 TCPU       13.89
 EEEEEEEEEE INT_CALC TERMINATION  DATE 25 03 2019 TIME 17:49:32.4

 *******************************************************************************
 !drive by JGB                                                                   
 CRYSTAL - SCF - TYPE OF CALCULATION :  RESTRICTED CLOSED SHELL
 *******************************************************************************

 CAPPA:IS1  2;IS2  2;IS3  2; K PTS MONK NET   8; SYMMOPS:K SPACE   2;G SPACE   1

 TTTTTTTTTTTTTTTTTTTTTTTTTTTTTT SDIK        TELAPSE       14.73 TCPU       14.46

 AAAAAAAAAAAAAAAAAAAAAAAAAAAAAAAAAAAAAAAAAAAAAAAAAAAAAAAAAAAAAAAAAAAAAAAAAAAAAAA
         ATOMIC WAVEFUNCTION(S)


 NUCLEAR CHARGE  8.0  SYMMETRY SPECIES            S    P
 N. ELECTRONS    8.0  NUMBER OF PRIMITIVE GTOS    8    4
                      NUMBER OF CONTRACTED GTOS   4    2
                      NUMBER OF CLOSED SHELLS     2    0
                      OPEN SHELL OCCUPATION       0    4

  ZNUC SCFIT  TOTAL HF ENERGY   KINETIC ENERGY   VIRIAL THEOREM ACCURACY
   8.0  12   -7.477373220E+01  7.477365593E+01 -2.000001020E+00  3.8E-06

 NUCLEAR CHARGE  1.0  SYMMETRY SPECIES            S
 N. ELECTRONS    1.0  NUMBER OF PRIMITIVE GTOS    4
                      NUMBER OF CONTRACTED GTOS   2
                      NUMBER OF CLOSED SHELLS     0
                      OPEN SHELL OCCUPATION       1

  ZNUC SCFIT  TOTAL HF ENERGY   KINETIC ENERGY   VIRIAL THEOREM ACCURACY
   1.0   1   -4.977266687E-01  5.190767460E-01 -1.958869132E+00  1.8E-16

 AAAAAAAAAAAAAAAAAAAAAAAAAAAAAAAAAAAAAAAAAAAAAAAAAAAAAAAAAAAAAAAAAAAAAAAAAAAAAAA

 CHARGE NORMALIZATION FACTOR   1.00000000
 TOTAL ATOMIC CHARGES:
   8.0000000   8.0000000   8.0000000   8.0000000   8.0000000   8.0000000
   8.0000000   8.0000000   8.0000000   8.0000000   8.0000000   8.0000000
   8.0000000   8.0000000   8.0000000   8.0000000   1.0000000   1.0000000
   1.0000000   1.0000000   1.0000000   1.0000000   1.0000000   1.0000000
   1.0000000   1.0000000   1.0000000   1.0000000   1.0000000   1.0000000
   1.0000000   1.0000000   1.0000000   1.0000000   1.0000000   1.0000000
   1.0000000   1.0000000   1.0000000   1.0000000   1.0000000   1.0000000
   1.0000000   1.0000000   1.0000000   1.0000000   1.0000000   1.0000000
 TTTTTTTTTTTTTTTTTTTTTTTTTTTTTT MOQGAD      TELAPSE       14.81 TCPU       14.54
 TTTTTTTTTTTTTTTTTTTTTTTTTTTTTT SHELLXN     TELAPSE       45.10 TCPU       44.59
 TTTTTTTTTTTTTTTTTTTTTTTTTTTTTT MONMO3      TELAPSE       47.23 TCPU       46.72
 NUMERICALLY INTEGRATED DENSITY    160.0000201917
 TTTTTTTTTTTTTTTTTTTTTTTTTTTTTT NUMDFT      TELAPSE       49.18 TCPU       48.62
 CYC   0 ETOT(AU) -1.221336711389E+03 DETOT -1.22E+03 tst  0.00E+00 PX  1.00E+00
 TTTTTTTTTTTTTTTTTTTTTTTTTTTTTT DIIS        TELAPSE       49.19 TCPU       48.63
 TTTTTTTTTTTTTTTTTTTTTTTTTTTTTT FDIK        TELAPSE       49.43 TCPU       48.83
 INSULATING STATE
 TOP OF VALENCE BANDS -    BAND     80; K    1; EIG -4.1504896E-01 AU
 BOTTOM OF VIRTUAL BANDS - BAND     81; K    1; EIG -7.3370390E-02 AU
 DIRECT ENERGY BAND GAP:   9.2976 eV
 TTTTTTTTTTTTTTTTTTTTTTTTTTTTTT PDIG        TELAPSE       49.44 TCPU       48.85
 CHARGE NORMALIZATION FACTOR   1.00000000
 TOTAL ATOMIC CHARGES:
   9.0718523   9.0758050   9.0738285   9.0740455   9.0715141   9.0730757
   9.0702392   9.0768881   9.0699556   9.0710027   9.0751313   9.0722173
   9.0723976   9.0752616   9.0746413   9.0753252   0.4610451   0.4577913
   0.4708173   0.4639927   0.4709341   0.4653813   0.4692450   0.4641095
   0.4616343   0.4574513   0.4578873   0.4618976   0.4597864   0.4612696
   0.4705809   0.4610987   0.4564638   0.4595861   0.4609858   0.4619680
   0.4660042   0.4695938   0.4606827   0.4572838   0.4576714   0.4597083
   0.4646372   0.4710519   0.4610258   0.4704455   0.4643915   0.4703969
 TTTTTTTTTTTTTTTTTTTTTTTTTTTTTT MOQGAD      TELAPSE       49.45 TCPU       48.85
 TTTTTTTTTTTTTTTTTTTTTTTTTTTTTT SHELLXN     TELAPSE       80.77 TCPU       79.89
 TTTTTTTTTTTTTTTTTTTTTTTTTTTTTT MONMO3      TELAPSE       82.77 TCPU       81.89
 NUMERICALLY INTEGRATED DENSITY    160.0000235410
 TTTTTTTTTTTTTTTTTTTTTTTTTTTTTT NUMDFT      TELAPSE       86.56 TCPU       85.66
 CYC   1 ETOT(AU) -1.220364249386E+03 DETOT  9.72E-01 tst  0.00E+00 PX  1.00E+00
 TTTTTTTTTTTTTTTTTTTTTTTTTTTTTT DIIS        TELAPSE       86.60 TCPU       85.70
 DIIS TEST: 0.15605E+01 AT SCF   CYCLE   1 - MIX   30 %
 TTTTTTTTTTTTTTTTTTTTTTTTTTTTTT FDIK        TELAPSE       86.67 TCPU       85.76
 INSULATING STATE
 TOP OF VALENCE BANDS -    BAND     80; K    1; EIG -3.1697709E-01 AU
 BOTTOM OF VIRTUAL BANDS - BAND     81; K    1; EIG -1.4352227E-02 AU
 DIRECT ENERGY BAND GAP:   8.2348 eV
 TTTTTTTTTTTTTTTTTTTTTTTTTTTTTT PDIG        TELAPSE       86.68 TCPU       85.77
 CHARGE NORMALIZATION FACTOR   1.00000000
 TOTAL ATOMIC CHARGES:
   8.8713817   8.8697404   8.8628936   8.8650630   8.8743134   8.8722819
   8.8744013   8.8627031   8.8726057   8.8748317   8.8628534   8.8711510
   8.8739976   8.8666795   8.8627821   8.8647478   0.5628896   0.5578579
   0.5741846   0.5680632   0.5743025   0.5712454   0.5700700   0.5685867
   0.5636243   0.5550879   0.5572247   0.5634721   0.5597018   0.5625422
   0.5761485   0.5647304   0.5550562   0.5609909   0.5617249   0.5635501
   0.5722272   0.5718448   0.5628741   0.5572954   0.5560660   0.5600041
   0.5690334   0.5748135   0.5644335   0.5733727   0.5691412   0.5754128
 TTTTTTTTTTTTTTTTTTTTTTTTTTTTTT MOQGAD      TELAPSE       86.69 TCPU       85.78
 TTTTTTTTTTTTTTTTTTTTTTTTTTTTTT SHELLXN     TELAPSE      118.00 TCPU      116.77
 TTTTTTTTTTTTTTTTTTTTTTTTTTTTTT MONMO3      TELAPSE      120.02 TCPU      118.79
 NUMERICALLY INTEGRATED DENSITY    160.0000183602
 TTTTTTTTTTTTTTTTTTTTTTTTTTTTTT NUMDFT      TELAPSE      123.89 TCPU      122.63
 CYC   2 ETOT(AU) -1.220689384255E+03 DETOT -3.25E-01 tst  1.98E-03 PX  1.20E-01
 TTTTTTTTTTTTTTTTTTTTTTTTTTTTTT DIIS        TELAPSE      123.93 TCPU      122.65
 DIIS TEST: 0.32521E+00 AT SCF   CYCLE   2 - DIIS ACTIVE - HISTORY:     2 CYCLES
 TTTTTTTTTTTTTTTTTTTTTTTTTTTTTT FDIK        TELAPSE      124.00 TCPU      122.71
 INSULATING STATE
 TOP OF VALENCE BANDS -    BAND     80; K    1; EIG -3.5995951E-01 AU
 BOTTOM OF VIRTUAL BANDS - BAND     81; K    1; EIG -1.5469156E-02 AU
 DIRECT ENERGY BAND GAP:   9.3741 eV
 TTTTTTTTTTTTTTTTTTTTTTTTTTTTTT PDIG        TELAPSE      124.02 TCPU      122.72
 CHARGE NORMALIZATION FACTOR   1.00000000
 TOTAL ATOMIC CHARGES:
   8.9401580   8.9412238   8.9369813   8.9386176   8.9413603   8.9405877
   8.9411501   8.9376328   8.9400771   8.9412738   8.9375911   8.9395840
   8.9419463   8.9398783   8.9373887   8.9384495   0.5277115   0.5245960
   0.5374173   0.5316627   0.5371615   0.5340615   0.5336149   0.5319807
   0.5284731   0.5228644   0.5243461   0.5286410   0.5254180   0.5280847
   0.5384464   0.5296306   0.5223878   0.5262978   0.5274365   0.5290377
   0.5349354   0.5348385   0.5278572   0.5244465   0.5234391   0.5254783
   0.5322673   0.5379135   0.5291778   0.5360325   0.5323481   0.5380953
 TTTTTTTTTTTTTTTTTTTTTTTTTTTTTT MOQGAD      TELAPSE      124.03 TCPU      122.73
 TTTTTTTTTTTTTTTTTTTTTTTTTTTTTT SHELLXN     TELAPSE      155.28 TCPU      153.71
 TTTTTTTTTTTTTTTTTTTTTTTTTTTTTT MONMO3      TELAPSE      157.25 TCPU      155.67
 NUMERICALLY INTEGRATED DENSITY    160.0000201748
 TTTTTTTTTTTTTTTTTTTTTTTTTTTTTT NUMDFT      TELAPSE      161.13 TCPU      159.53
 CYC   3 ETOT(AU) -1.220774049809E+03 DETOT -8.47E-02 tst  2.13E-04 PX  4.21E-02
 TTTTTTTTTTTTTTTTTTTTTTTTTTTTTT DIIS        TELAPSE      161.17 TCPU      159.57
 DIIS TEST: 0.10863E-02 AT SCF   CYCLE   3 - DIIS ACTIVE - HISTORY:     3 CYCLES
 TTTTTTTTTTTTTTTTTTTTTTTTTTTTTT FDIK        TELAPSE      161.24 TCPU      159.63
 INSULATING STATE
 TOP OF VALENCE BANDS -    BAND     80; K    1; EIG -3.5795842E-01 AU
 BOTTOM OF VIRTUAL BANDS - BAND     81; K    1; EIG -1.3474177E-02 AU
 DIRECT ENERGY BAND GAP:   9.3739 eV
 TTTTTTTTTTTTTTTTTTTTTTTTTTTTTT PDIG        TELAPSE      161.25 TCPU      159.64
 CHARGE NORMALIZATION FACTOR   1.00000000
 TOTAL ATOMIC CHARGES:
   8.9393469   8.9394226   8.9333318   8.9348548   8.9416660   8.9404557
   8.9421808   8.9331500   8.9398938   8.9428530   8.9337675   8.9391330
   8.9415469   8.9370064   8.9329634   8.9353084   0.5283719   0.5252215
   0.5378028   0.5328247   0.5382580   0.5357630   0.5345602   0.5335287
   0.5289193   0.5231413   0.5247785   0.5292620   0.5257569   0.5284580
   0.5395244   0.5314478   0.5227573   0.5268450   0.5276698   0.5292222
   0.5367148   0.5359753   0.5283927   0.5251061   0.5238440   0.5259114
   0.5336997   0.5383840   0.5308678   0.5372382   0.5339596   0.5389122
 TTTTTTTTTTTTTTTTTTTTTTTTTTTTTT MOQGAD      TELAPSE      161.26 TCPU      159.65
 TTTTTTTTTTTTTTTTTTTTTTTTTTTTTT SHELLXN     TELAPSE      192.68 TCPU      190.64
 TTTTTTTTTTTTTTTTTTTTTTTTTTTTTT MONMO3      TELAPSE      194.75 TCPU      192.68
 NUMERICALLY INTEGRATED DENSITY    160.0000200917
 TTTTTTTTTTTTTTTTTTTTTTTTTTTTTT NUMDFT      TELAPSE      198.55 TCPU      196.43
 CYC   4 ETOT(AU) -1.220774245438E+03 DETOT -1.96E-04 tst  5.29E-07 PX  2.36E-03
 TTTTTTTTTTTTTTTTTTTTTTTTTTTTTT DIIS        TELAPSE      198.59 TCPU      196.46
 DIIS TEST: 0.85958E-04 AT SCF   CYCLE   4 - DIIS ACTIVE - HISTORY:     4 CYCLES
 TTTTTTTTTTTTTTTTTTTTTTTTTTTTTT FDIK        TELAPSE      198.66 TCPU      196.51
 INSULATING STATE
 TOP OF VALENCE BANDS -    BAND     80; K    1; EIG -3.5803290E-01 AU
 BOTTOM OF VIRTUAL BANDS - BAND     81; K    1; EIG -1.3259651E-02 AU
 DIRECT ENERGY BAND GAP:   9.3818 eV
 TTTTTTTTTTTTTTTTTTTTTTTTTTTTTT PDIG        TELAPSE      198.67 TCPU      196.53
 CHARGE NORMALIZATION FACTOR   1.00000000
 TOTAL ATOMIC CHARGES:
   8.9382899   8.9397271   8.9354899   8.9373498   8.9394842   8.9387870
   8.9392042   8.9360612   8.9382037   8.9393887   8.9361997   8.9376323
   8.9402365   8.9385541   8.9359504   8.9368257   0.5285380   0.5255624
   0.5380107   0.5325644   0.5378209   0.5349165   0.5342637   0.5327866
   0.5292684   0.5238880   0.5252682   0.5295378   0.5263725   0.5289430
   0.5390577   0.5306233   0.5233312   0.5271391   0.5283102   0.5298875
   0.5357867   0.5354822   0.5287261   0.5254879   0.5243666   0.5262908
   0.5330928   0.5384899   0.5301183   0.5366467   0.5333014   0.5387355
 TTTTTTTTTTTTTTTTTTTTTTTTTTTTTT MOQGAD      TELAPSE      198.68 TCPU      196.53
 TTTTTTTTTTTTTTTTTTTTTTTTTTTTTT SHELLXN     TELAPSE      229.99 TCPU      227.51
 TTTTTTTTTTTTTTTTTTTTTTTTTTTTTT MONMO3      TELAPSE      232.15 TCPU      229.62
 NUMERICALLY INTEGRATED DENSITY    160.0000201295
 TTTTTTTTTTTTTTTTTTTTTTTTTTTTTT NUMDFT      TELAPSE      235.98 TCPU      233.38
 CYC   5 ETOT(AU) -1.220774251655E+03 DETOT -6.22E-06 tst  1.30E-07 PX  1.57E-03
 TTTTTTTTTTTTTTTTTTTTTTTTTTTTTT DIIS        TELAPSE      236.01 TCPU      233.42
 DIIS TEST: 0.66896E-04 AT SCF   CYCLE   5 - DIIS ACTIVE - HISTORY:     5 CYCLES
 TTTTTTTTTTTTTTTTTTTTTTTTTTTTTT FDIK        TELAPSE      236.08 TCPU      233.47
 INSULATING STATE
 TOP OF VALENCE BANDS -    BAND     80; K    1; EIG -3.5798543E-01 AU
 BOTTOM OF VIRTUAL BANDS - BAND     81; K    1; EIG -1.3246416E-02 AU
 DIRECT ENERGY BAND GAP:   9.3808 eV
 TTTTTTTTTTTTTTTTTTTTTTTTTTTTTT PDIG        TELAPSE      236.10 TCPU      233.48
 CHARGE NORMALIZATION FACTOR   1.00000000
 TOTAL ATOMIC CHARGES:
   8.9388573   8.9395113   8.9343926   8.9359406   8.9406270   8.9396824
   8.9408198   8.9346143   8.9390959   8.9412152   8.9349418   8.9385126
   8.9408717   8.9376449   8.9344009   8.9360815   0.5284651   0.5253695
   0.5379626   0.5326899   0.5380674   0.5353422   0.5344653   0.5331709
   0.5290917   0.5234559   0.5249837   0.5293822   0.5260277   0.5286671
   0.5393471   0.5309799   0.5230257   0.5269936   0.5279498   0.5295481
   0.5362435   0.5357491   0.5285342   0.5252430   0.5240767   0.5261062
   0.5334152   0.5385148   0.5304673   0.5369741   0.5335937   0.5388867
 TTTTTTTTTTTTTTTTTTTTTTTTTTTTTT MOQGAD      TELAPSE      236.10 TCPU      233.48
 TTTTTTTTTTTTTTTTTTTTTTTTTTTTTT SHELLXN     TELAPSE      267.47 TCPU      264.52
 TTTTTTTTTTTTTTTTTTTTTTTTTTTTTT MONMO3      TELAPSE      269.42 TCPU      266.48
 NUMERICALLY INTEGRATED DENSITY    160.0000201130
 TTTTTTTTTTTTTTTTTTTTTTTTTTTTTT NUMDFT      TELAPSE      273.26 TCPU      270.30
 CYC   6 ETOT(AU) -1.220774267594E+03 DETOT -1.59E-05 tst  3.36E-08 PX  7.90E-04
 TTTTTTTTTTTTTTTTTTTTTTTTTTTTTT DIIS        TELAPSE      273.35 TCPU      270.38
 DIIS TEST: 0.68788E-05 AT SCF   CYCLE   6 - DIIS ACTIVE - HISTORY:     6 CYCLES
 TTTTTTTTTTTTTTTTTTTTTTTTTTTTTT FDIK        TELAPSE      274.58 TCPU      270.46
 INSULATING STATE
 TOP OF VALENCE BANDS -    BAND     80; K    1; EIG -3.5796434E-01 AU
 BOTTOM OF VIRTUAL BANDS - BAND     81; K    1; EIG -1.3238046E-02 AU
 DIRECT ENERGY BAND GAP:   9.3805 eV
 TTTTTTTTTTTTTTTTTTTTTTTTTTTTTT PDIG        TELAPSE      274.59 TCPU      270.48
 CHARGE NORMALIZATION FACTOR   1.00000000
 TOTAL ATOMIC CHARGES:
   8.9387937   8.9395557   8.9343613   8.9360710   8.9405832   8.9396095
   8.9406735   8.9345487   8.9390426   8.9411081   8.9349354   8.9383704
   8.9409044   8.9377505   8.9344286   8.9360096   0.5284719   0.5253910
   0.5379538   0.5326878   0.5380807   0.5353542   0.5344495   0.5331499
   0.5291013   0.5234958   0.5250170   0.5294095   0.5260581   0.5286999
   0.5393647   0.5310271   0.5230481   0.5269949   0.5279815   0.5295578
   0.5362576   0.5357598   0.5285693   0.5252979   0.5240906   0.5261016
   0.5334000   0.5384987   0.5304799   0.5369845   0.5336254   0.5388941
 TTTTTTTTTTTTTTTTTTTTTTTTTTTTTT MOQGAD      TELAPSE      274.60 TCPU      270.48
 TTTTTTTTTTTTTTTTTTTTTTTTTTTTTT SHELLXN     TELAPSE      306.06 TCPU      301.44
 TTTTTTTTTTTTTTTTTTTTTTTTTTTTTT MONMO3      TELAPSE      308.05 TCPU      303.39
 NUMERICALLY INTEGRATED DENSITY    160.0000201123
 TTTTTTTTTTTTTTTTTTTTTTTTTTTTTT NUMDFT      TELAPSE      311.88 TCPU      307.16
 CYC   7 ETOT(AU) -1.220774267997E+03 DETOT -4.03E-07 tst  9.83E-10 PX  6.12E-05
 TTTTTTTTTTTTTTTTTTTTTTTTTTTTTT DIIS        TELAPSE      311.92 TCPU      307.20
 DIIS TEST: 0.70542E-07 AT SCF   CYCLE   7 - DIIS ACTIVE - HISTORY:     7 CYCLES
 TTTTTTTTTTTTTTTTTTTTTTTTTTTTTT FDIK        TELAPSE      311.99 TCPU      307.25
 INSULATING STATE
 TOP OF VALENCE BANDS -    BAND     80; K    1; EIG -3.5797732E-01 AU
 BOTTOM OF VIRTUAL BANDS - BAND     81; K    1; EIG -1.3239010E-02 AU
 DIRECT ENERGY BAND GAP:   9.3808 eV
 TTTTTTTTTTTTTTTTTTTTTTTTTTTTTT PDIG        TELAPSE      312.01 TCPU      307.27
 CHARGE NORMALIZATION FACTOR   1.00000000
 TOTAL ATOMIC CHARGES:
   8.9388035   8.9394744   8.9344242   8.9359467   8.9405231   8.9396119
   8.9407416   8.9346671   8.9390241   8.9411133   8.9349686   8.9384580
   8.9407814   8.9376214   8.9344310   8.9361181   0.5284805   0.5253991
   0.5379792   0.5327055   0.5380624   0.5353329   0.5344766   0.5331749
   0.5291143   0.5235105   0.5250166   0.5294002   0.5260557   0.5286828
   0.5393407   0.5309863   0.5230604   0.5270126   0.5279786   0.5295694
   0.5362371   0.5357521   0.5285510   0.5252725   0.5241187   0.5261410
   0.5334224   0.5385354   0.5304762   0.5369732   0.5335898   0.5388831
 TTTTTTTTTTTTTTTTTTTTTTTTTTTTTT MOQGAD      TELAPSE      312.02 TCPU      307.28
 TTTTTTTTTTTTTTTTTTTTTTTTTTTTTT SHELLXN     TELAPSE      343.28 TCPU      338.24
 +++ ENERGIES IN A.U. +++
 ::: EXT EL-POLE                                  -1.2606080511059E+03
 ::: EXT EL-SPHEROPOLE                             1.4936221333721E+01
 ::: BIELET ZONE E-E                               1.5846812905914E+03
 ::: TOTAL E-E                                     3.3900946081929E+02
 ::: TOTAL E-N + N-E                              -2.4480372767855E+03
 ::: TOTAL N-N                                    -2.3321791816900E+02
 ::: KINETIC ENERGY                                1.2130577054653E+03
 ::: PSEUDO TOTAL   ENERGY                        -1.1291880286699E+03
 ::: VIRIAL COEFFICIENT                            1.0358073773273E+00
 TTTTTTTTTTTTTTTTTTTTTTTTTTTTTT MONMO3      TELAPSE      345.28 TCPU      340.22
 NUMERICALLY INTEGRATED DENSITY    160.0000201124
 TTTTTTTTTTTTTTTTTTTTTTTTTTTTTT NUMDFT      TELAPSE      349.05 TCPU      343.98
 CYC   8 ETOT(AU) -1.220774268020E+03 DETOT -2.35E-08 tst  1.33E-10 PX  6.12E-05

 == SCF ENDED - CONVERGENCE ON ENERGY      E(AU) -1.2207742680204E+03 CYCLES   8


 ENERGY EXPRESSION=HARTREE+FOCK EXCH*0.00000+(HSE-3c     EXCH)*1.00000+PBEh-3c    CORR


 TOTAL ENERGY(DFT)(AU)(  8) -1.2207742680204E+03 DE-2.4E-08 tester 1.3E-10
 TTTTTTTTTTTTTTTTTTTTTTTTTTTTTT EDFT        TELAPSE      349.05 TCPU      343.98
 
 INFORMATION **** DFTD3 ENERGY **** CALCULATE DFTD3 ENERGY

           DFT-D V3(BJ)
 DF                                         hse3c     
 parameters
 s6       :    1.0000
 s8       :    0.0000
 a1       :    0.4411
 a2       :    4.5182
 k1 k3    :   16.0000   -4.0000
 Cutoff   :   50.2022
 CN-Cutoff:   21.1671
 
 Edisp /kcal,au:   -29.3225 -0.04672839

 E6    /kcal :   -31.5373
 E8    /kcal :     0.0000
 E6(ABC) "   :   2.214825
 
 INFORMATION **** DFTD3 ENERGY **** NORMAL TERMINATION OF DFTD3 MODULE

 GCP ENERGY CALCULATION
  level           hse3c               basis:hse3c
  Nbf            304
  Atoms           48

  Parameters: 
  sigma     1.0000
  eta       1.4086
  alpha     0.2908
  beta      1.9526

  dmp_scal      4.0000
  dmp_exp       6.0000
 cutoffs: 
   distance [bohr] 60.0
   noise    [a.u.] 2.2E-16
 SR-damping   T
 ** gCP correction **
  Egcp:        0.2113745547 / (a.u.) ||     132.6395 / (kcal/mol)
 INFORMATION **** GCP **** NORMAL TERMINATION OF GCP MODULE

 *******************************************************************************

 DFT-D3-GCP DISPERSION AND COUNTERPOISE CORRECTION

 D3 DISPERSION ENERGY (AU)      -4.6728388909132E-02
 GCP ENERGY (AU)                 2.1137455467282E-01
 TOTAL ENERGY + DISP + GCP (AU) -1.2206096218547E+03

 *******************************************************************************

 EIGENVECTORS IN FORTRAN UNIT  8
 TTTTTTTTTTTTTTTTTTTTTTTTTTTTTT END         TELAPSE      350.67 TCPU      345.54
 EEEEEEEEEE TERMINATION  DATE 25 03 2019 TIME 17:55:09.0
NODE    0 CPU TIME =       345.538
NODE    1 CPU TIME =       347.486
NODE    2 CPU TIME =       347.085
NODE    3 CPU TIME =       347.689
NODE    4 CPU TIME =       347.019
NODE    5 CPU TIME =       347.995
NODE    6 CPU TIME =       347.025
NODE    7 CPU TIME =       347.747
    TOTAL CPU TIME =      2777.584
