 PROCESS            6  OF            8  WORKING
 PROCESS            0  OF            8  WORKING
 PROCESS            3  OF            8  WORKING

         
 *******************************************************************************
 *                                                                             *
 *                               CRYSTAL17                                     *
 *                      public : 1.0.1 - Feb 1st, 2017                         *
 *                       HTTP://WWW.CRYSTAL.UNITO.IT                           *
 *                                                                             *
 *                              MAIN AUTHORS                                   *
 *                                                                             *
 *  R. DOVESI(1,11), V.R. SAUNDERS(2), C. ROETTI(1,11), R. ORLANDO(1,11),      *
 *  C.M. ZICOVICH-WILSON(1,3), F. PASCALE(4), B. CIVALLERI(1,11),              *
 *  K. DOLL(5), N.M. HARRISON(2,6), I.J. BUSH(7), Ph. D'ARCO(8),               *
 *  M. LLUNELL(9), M. CAUSA'(10), Y. NOEL(8), L. MASCHIO(1,11), A. ERBA(1,11)  *
 *  M. RE'RAT(14), S. CASASSA(1,11)                                            *
 *                                                                             *
 *        CONTRIBUTIONS TO THE CODE HAVE ALSO BEEN GIVEN BY                    *
 *                                                                             *
 *  M. FERRABONE(1,11), M. DE LA PIERRE(1,11), M. FERRERO(1,11),               *
 *  J. BAIMA(1,11), E. ALBANESE(1,11), M.F. PEINTINGER(12), R. BAST(13),       *
 *  B. KIRTMAN(15), V. LACIVITA(1,11), R. DEMICHELIS(1,16)                     *
 *  G. BRANDEBURG(17), S. SALUSTRO(1,11), G. SANSONE(1,11)                     *
 *  M.T. RUGGIERO(18)                                                          *
 *                                                                             *
 * (1) THEORETICAL CHEMISTRY GROUP - UNIVERSITA' DI TORINO - TORINO (ITALY)    *

 * (2) COMPUTATIONAL SCIENCE & ENGINEERING DEPARTMENT - STFC DARESBURY (UK)    *
 * (3) UNIVERSIDAD AUTONOMA DEL ESTADO DE MORELOS - CUERNAVACA (MEXICO)        *
 * (4) UNIVERSITE' DE LORRAINE - NANCY (FRANCE)                                *
 * (5) UNIVERSITAET STUTTGART- STUTTGART (GERMANY)                             *
 * (6) IMPERIAL COLLEGE - LONDON (UK)                                          *
 * (7) OXFORD E-RESEARCH CENTRE - OXFORD (UK)                                  *
 * (8) UPMC - SORBONNE UNIVERSITES - PARIS (FRANCE)                            *
 * (9) UNIVERSIDAD DE BARCELONA - BARCELONA (SPAIN)                            *
 *(10) UNIVERSITA' DI NAPOLI "FEDERICO II" - NAPOLI (ITALY)                    *
 PROCESS            2  OF            8  WORKING
 *(11) NIS - NANOSTRUCTURED INTERFACES AND SURFACES - TORINO (ITALY)           *
 *(12) MPI FUER CHEMISCHE ENERGIEKONVERSION - MUELHEIM AN DER RUHR (GERMANY)   *
 *(13) UNIVERSITY OF TROMSO - TROMSO (NORWAY)                                  *
 *(14) UNIVERSITE' DE PAU ET DES PAYS DE L'ADOUR - PAU (FRANCE)                *
 *(15) UNIVERSITY OF CALIFORNIA SANTA BARBARA - SANTA BARBARA (USA)            *
 *(16) CURTIN UNIVERSITY - PERTH (AUSTRALIA)                                   *
 *(17) UNIVERSITY COLLEGE LONDON - LONDON (UK)                                 *
 *(18) CAMBRIDGE UNIVERSITY - CAMBRIDGE (UK)                                   *
 *                                                                             *
 *******************************************************************************
 EEEEEEEEEE STARTING  DATE 25 03 2019 TIME 20:28:20.4
 PROCESS            5  OF            8  WORKING
 PROCESS            4  OF            8  WORKING
 !drive by JGB                                                                   
 PROCESS            7  OF            8  WORKING

 CRYSTAL CALCULATION
 (INPUT ACCORDING TO THE INTERNATIONAL TABLES FOR X-RAY CRYSTALLOGRAPHY)
 CRYSTAL FAMILY                       :  TRICLINIC   
 CRYSTAL CLASS  (GROTH - 1921)        :  TRICLINIC PEDIAL                     

 SPACE GROUP (NONCENTROSYMMETRIC)     :  P 1             

 LATTICE PARAMETERS  (ANGSTROMS AND DEGREES) - CONVENTIONAL CELL
        A           B           C        ALPHA        BETA       GAMMA
     5.94291     6.75747     6.12843    73.71117   135.65108   123.22550


 NUMBER OF IRREDUCIBLE ATOMS IN THE CONVENTIONAL CELL:   18

 INPUT COORDINATES

 ATOM AT. N.              COORDINATES
   1   8     2.562314163097E-01  3.417330992928E-01  3.675547465619E-02
   2   8     7.847555028226E-01  7.762927482054E-01  9.854618121117E-01
   3   8     4.931295167721E-01  8.327115148230E-01  3.954549236682E-01
   4   8     5.154707216421E-01  2.076596631944E-01  7.376234507021E-01
   5   8     4.486286974362E-02  7.236621426023E-01  6.466645234107E-01
   6   8     9.300927055502E-01  2.861121764660E-01  3.714585731278E-01
   7   1     1.616642496156E-03  2.956536469281E-01  9.123784808442E-01
   8   1     3.370668777109E-01  2.798731885164E-01  2.285114892076E-01
   9   1     2.968601937244E-02  7.906035236221E-01  1.375202690712E-01
  10   1     6.302715437970E-01  6.398398856635E-01  1.367307469521E-02
  11   1     5.907277883796E-01  8.172512435654E-01  6.099425710614E-01
  12   1     6.529108072343E-01  4.104028097960E-04  4.086783172453E-01
  13   1     3.379334088546E-01  2.618712567196E-01  6.223102447171E-01
  14   1     3.616291451381E-01  3.162659288074E-02  6.978764137421E-01
  15   1     1.391897675553E-01  6.977952128631E-01  8.545373025953E-01
  16   1     8.162658530831E-01  7.220200250597E-01  5.267524147110E-01
  17   1     9.701398170886E-01  4.228821396356E-01  4.414059630547E-01
  18   1     7.843995964489E-01  2.762515371514E-01  1.432847013780E-01

 *******************************************************************************

 << INFORMATION >>: FROM NOW ON, ALL COORDINATES REFER TO THE PRIMITIVE CELL

 *******************************************************************************

 LATTICE PARAMETERS  (ANGSTROMS AND DEGREES) - PRIMITIVE CELL
       A          B          C        ALPHA      BETA     GAMMA        VOLUME
    5.94291    6.75747    6.12843    73.71117 135.65108 123.22550    141.280710

 COORDINATES OF THE EQUIVALENT ATOMS (FRACTIONAL UNITS)

 N. ATOM EQUIV AT. N.          X                  Y                  Z

   1   1   1    8 O     2.56231416310E-01  3.41733099293E-01  3.67554746562E-02

   2   2   1    8 O    -2.15244497177E-01 -2.23707251795E-01 -1.45381878883E-02

   3   3   1    8 O     4.93129516772E-01 -1.67288485177E-01  3.95454923668E-01

   4   4   1    8 O    -4.84529278358E-01  2.07659663194E-01 -2.62376549298E-01

   5   5   1    8 O     4.48628697436E-02 -2.76337857398E-01 -3.53335476589E-01

   6   6   1    8 O    -6.99072944498E-02  2.86112176466E-01  3.71458573128E-01

   7   7   1    1 H     1.61664249616E-03  2.95653646928E-01 -8.76215191558E-02

   8   8   1    1 H     3.37066877711E-01  2.79873188516E-01  2.28511489208E-01

   9   9   1    1 H     2.96860193724E-02 -2.09396476378E-01  1.37520269071E-01

  10  10   1    1 H    -3.69728456203E-01 -3.60160114336E-01  1.36730746952E-02

  11  11   1    1 H    -4.09272211620E-01 -1.82748756435E-01 -3.90057428939E-01

  12  12   1    1 H    -3.47089192766E-01  4.10402809796E-04  4.08678317245E-01

  13  13   1    1 H     3.37933408855E-01  2.61871256720E-01 -3.77689755283E-01

  14  14   1    1 H     3.61629145138E-01  3.16265928807E-02 -3.02123586258E-01

  15  15   1    1 H     1.39189767555E-01 -3.02204787137E-01 -1.45462697405E-01

  16  16   1    1 H    -1.83734146917E-01 -2.77979974940E-01 -4.73247585289E-01

  17  17   1    1 H    -2.98601829114E-02  4.22882139636E-01  4.41405963055E-01

  18  18   1    1 H    -2.15600403551E-01  2.76251537151E-01  1.43284701378E-01

 NUMBER OF SYMMETRY OPERATORS         :    1
 *******************************************************************************
 * GEOMETRY EDITING - INPUT COORDINATES ARE GIVEN IN ANGSTROM         
 *******************************************************************************

 GCALCO - MAX INDICES DIRECT LATTICE VECTOR    18    11    15
 NO.OF VECTORS CREATED 6999 STARS 3500 RMAX   116.85913 BOHR

 GEOMETRY FOR WAVE FUNCTION - DIMENSIONALITY OF THE SYSTEM    3
 (NON PERIODIC DIRECTION: LATTICE PARAMETER FORMALLY SET TO 500)
 *******************************************************************************
 LATTICE PARAMETERS (ANGSTROMS AND DEGREES) - BOHR = 0.5291772083 ANGSTROM
 PRIMITIVE CELL - CENTRING CODE 1/0 VOLUME=   141.280710 - DENSITY  1.270 g/cm^3
         A              B              C           ALPHA      BETA       GAMMA 
     5.94291421     6.75746642     6.12843256    73.711171 135.651083 123.225501
 *******************************************************************************
 ATOMS IN THE ASYMMETRIC UNIT   18 - ATOMS IN THE UNIT CELL:   18
     ATOM                 X/A                 Y/B                 Z/C    
 *******************************************************************************
      1 T   8 O     2.562314163097E-01  3.417330992928E-01  3.675547465619E-02
      2 T   8 O    -2.152444971774E-01 -2.237072517946E-01 -1.453818788830E-02
      3 T   8 O     4.931295167721E-01 -1.672884851770E-01  3.954549236682E-01
      4 T   8 O    -4.845292783579E-01  2.076596631944E-01 -2.623765492979E-01
      5 T   8 O     4.486286974362E-02 -2.763378573977E-01 -3.533354765893E-01
      6 T   8 O    -6.990729444976E-02  2.861121764660E-01  3.714585731278E-01
      7 T   1 H     1.616642496156E-03  2.956536469281E-01 -8.762151915583E-02
      8 T   1 H     3.370668777109E-01  2.798731885164E-01  2.285114892076E-01
      9 T   1 H     2.968601937244E-02 -2.093964763779E-01  1.375202690712E-01
     10 T   1 H    -3.697284562030E-01 -3.601601143365E-01  1.367307469521E-02
     11 T   1 H    -4.092722116204E-01 -1.827487564346E-01 -3.900574289386E-01
     12 T   1 H    -3.470891927657E-01  4.104028097960E-04  4.086783172453E-01
     13 T   1 H     3.379334088546E-01  2.618712567196E-01 -3.776897552829E-01
     14 T   1 H     3.616291451381E-01  3.162659288074E-02 -3.021235862579E-01
     15 T   1 H     1.391897675553E-01 -3.022047871369E-01 -1.454626974047E-01
     16 T   1 H    -1.837341469169E-01 -2.779799749403E-01 -4.732475852890E-01
     17 T   1 H    -2.986018291137E-02  4.228821396356E-01  4.414059630547E-01
     18 T   1 H    -2.156004035511E-01  2.762515371514E-01  1.432847013780E-01

 T = ATOM BELONGING TO THE ASYMMETRIC UNIT

 ****    1 SYMMOPS - TRANSLATORS IN FRACTIONAL UNITS
 **** MATRICES AND TRANSLATORS IN THE CRYSTALLOGRAPHIC REFERENCE FRAME
   V INV                    ROTATION MATRICES                   TRANSLATORS
   1   1  1.00  0.00  0.00  0.00  1.00  0.00 -0.00  0.00  1.00  0.00  0.00  0.00

 DIRECT LATTICE VECTORS CARTESIAN COMPONENTS (ANGSTROM)
          X                    Y                    Z
   0.497136970377E+01  -0.325633422362E+01   0.000000000000E+00
   0.000000000000E+00   0.675746642000E+01   0.000000000000E+00
  -0.411295614470E+01   0.171890012705E+01   0.420555106347E+01


 CARTESIAN COORDINATES - PRIMITIVE CELL
 *******************************************************************************
 *      ATOM          X(ANGSTROM)         Y(ANGSTROM)         Z(ANGSTROM)
 *******************************************************************************
    1     8 O     1.122647444857E+00  1.538053803035E+00  1.545770255287E-01
    2     8 O    -1.010265042962E+00 -8.357759123169E-01 -6.114109153458E-02
    3     8 O    -3.337317760443E-02 -5.190592280729E-01 -2.542445188683E+00
    4     8 O    -1.329630934356E+00  2.530043388363E+00 -1.103437975930E+00
    5     8 O     1.676283231047E+00 -2.620780685655E+00 -1.485970389332E+00
    6     8 O     3.096041877218E+00 -4.567990948546E-01  1.562187997253E+00
    7     1 H     3.684203931473E-01  1.841992622371E+00 -3.684967730688E-01
    8     1 H     7.358263303237E-01  1.186419691551E+00  9.610167364524E-01
    9     1 H    -4.180346583639E-01 -1.275273650457E+00  5.783485138412E-01
   10     1 H    -1.894293602373E+00 -1.206307803243E+00  5.750281382536E-02
   11     1 H    -4.303543743035E-01 -5.726612395873E-01 -1.640406435088E+00
   12     1 H     7.065714511613E-01  1.165887846433E-01 -2.486833531763E+00
   13     1 H    -8.795428342499E-01  1.738851257796E+00  2.617157511479E+00
   14     1 H    -1.930956467069E+00  1.773144230614E+00 -1.270596169487E+00
   15     1 H     1.290245488614E+00 -2.745422953758E+00 -6.117508017657E-01
   16     1 H     1.033036192350E+00 -2.093605889917E+00 -1.990266885597E+00
   17     1 H     3.007440327038E+00  4.572451361012E-01  1.856355317347E+00
   18     1 H    -1.661153007308E+00  2.815119549885E+00  6.025911282594E-01

 *******************************************************************************
 STARTING BASIS SET HANDLING 
 *******************************************************************************

 Loading internal basis set: DEF2-MSVP           

 Please cite in your publication:
 Fully Optimized Contracted Gaussian Basis Sets for Atoms Li to Kr. A. Schäfer, 
 H. Horn and R. Ahlrichs; J. Chem. Phys. 97, 2571 (1992).                       
                                                                                
                    
 S. Grimme, J. G. Brandenburg, C. Bannwarth, and A. Hansen, J. Chem. Phys., 143,
  054107 (2015).                                                                
                                                                                
                    

 *******************************************************************************
 LOCAL ATOMIC FUNCTIONS BASIS SET
 *******************************************************************************
   ATOM   X(AU)   Y(AU)   Z(AU)  N. TYPE  EXPONENT  S COEF   P COEF   D/F/G COEF
 *******************************************************************************
   1 O    2.121   2.907   0.292
                                  1 S  
                                         6.773E+03 1.727E-03 0.000E+00 0.000E+00
                                         1.017E+03 1.325E-02 0.000E+00 0.000E+00
                                         2.313E+02 6.603E-02 0.000E+00 0.000E+00
                                         6.501E+01 2.353E-01 0.000E+00 0.000E+00
                                         2.050E+01 5.498E-01 0.000E+00 0.000E+00
                                  2 S  
                                         6.716E+00 1.000E+00 0.000E+00 0.000E+00
                                  3 S  
                                         1.147E+00 1.000E+00 0.000E+00 0.000E+00
                                  4 S  
                                         3.342E-01 1.000E+00 0.000E+00 0.000E+00
                           5-     7 P  
                                         1.769E+01 0.000E+00 4.359E-02 0.000E+00
                                         3.854E+00 0.000E+00 2.318E-01 0.000E+00
                                         1.047E+00 0.000E+00 5.146E-01 0.000E+00
                           8-    10 P  
                                         2.759E-01 0.000E+00 1.000E+00 0.000E+00
                          11-    15 D  
                                         8.000E-01 0.000E+00 0.000E+00 1.000E+00
   2 O   -1.909  -1.579  -0.116
   3 O   -0.063  -0.981  -4.805
   4 O   -2.513   4.781  -2.085
   5 O    3.168  -4.953  -2.808
   6 O    5.851  -0.863   2.952
   7 H    0.696   3.481  -0.696
                                 91 S  
                                         1.874E+01 1.968E-02 0.000E+00 0.000E+00
                                         2.826E+00 1.380E-01 0.000E+00 0.000E+00
                                         6.401E-01 4.783E-01 0.000E+00 0.000E+00
                                 92 S  
                                         1.756E-01 1.000E+00 0.000E+00 0.000E+00
   8 H    1.391   2.242   1.816
   9 H   -0.790  -2.410   1.093
  10 H   -3.580  -2.280   0.109
  11 H   -0.813  -1.082  -3.100
  12 H    1.335   0.220  -4.699
  13 H   -1.662   3.286   4.946
  14 H   -3.649   3.351  -2.401
  15 H    2.438  -5.188  -1.156
  16 H    1.952  -3.956  -3.761
  17 H    5.683   0.864   3.508
  18 H   -3.139   5.320   1.139
 PROCESS            1  OF            8  WORKING

 *******************************************************************************
 FINISHED BASIS SET HANDLING 
 *******************************************************************************

 INFORMATION **** SET_MPP **** PCRYSTAL CALCULATION
 INFORMATION **** READM2 **** NEW DEFAULT: FOCK/KS MATRIX MIXING SET TO 30 %
 INFORMATION **** READM2 **** NEW DEFAULT: FULL DIRECT SCF MODE
 INFORMATION **** READM2 **** NEW DEFAULT: COULOMB BIPOLAR BUFFER SET TO 32 Mb
 INFORMATION **** READM2 **** NEW DEFAULT: EXCHANGE BIPOLAR BUFFER SET TO 32 Mb

 *******************************************************************************
 NEW DEFAULT: DFT INTEGRATION GRID INCREASED TO XLGRID
 NEW DEFAULT: DIIS ACCELERATOR ACTIVE
 USE KEYWORD NODIIS TO TURN IT OFF
 *******************************************************************************

 INFORMATION **** RDDFTP **** HSE-3c calculation
 INFORMATION **** RDDFTP **** HSE screened hybrid functional combined with D3 and gCP

PLEASE CITE:
(1) HSE-3c Reference
 J. G. Brandenburg, E. Caldeweyer, and S. Grimme, 
 Phys. Chem. Chem. Phys. 18, 15519 (2016)
(2) DFT-D3 Reference
 S. Grimme, J. Antony, S. Ehrlich,
 and H. Krieg, J. Chem. Phys. 132, 154104 (2010)
(3) gCP Reference
 H. Kruse and S. Grimme J. Chem. Phys, 136, 154101 (2012)
 J. G. Brandenburg, M. Alessio, B. Civalleri, M. F. Peintinger
 T. Bredow, and S. Grimme, J. Phys. Chem. A, 117, 9282 (2013) 

 WARNING **** RDDFTP **** HSE3c-HJS ACTIVE
 RANGE SEPARATION - OMEGA:   0.110000000000000     
 WARNING **** RDDFTP **** HSE-3c has to be combined with def2-mSVP basis set
 WARNING **** RDDFTP **** Note: Harmonic frequencies are scaled by 0.95
 WARNING **** RDDFTP **** as recommended in original publication
 INFORMATION **** BIPOSIZE **** COULOMB BIPOLAR BUFFER SET TO    60000000
 INFORMATION **** EXCHSIZE **** EXCHANGE BIPOLAR BUFFER SIZE SET TO    40000000
 *******************************************************************************
 N. OF ATOMS PER CELL        18  COULOMB OVERLAP TOL         (T1) 10**   -6
 NUMBER OF SHELLS            66  COULOMB PENETRATION TOL     (T2) 10**   -6
 NUMBER OF AO               114  EXCHANGE OVERLAP TOL        (T3) 10**   -6
 N. OF ELECTRONS PER CELL    60  EXCHANGE PSEUDO OVP (F(G))  (T4) 10**   -6
 CORE ELECTRONS PER CELL     12  EXCHANGE PSEUDO OVP (P(G))  (T5) 10**  -12
 N. OF SYMMETRY OPERATORS     1  POLE ORDER IN MONO ZONE                  4
 *******************************************************************************
 TYPE OF CALCULATION :  RESTRICTED CLOSED SHELL
 KOHN-SHAM HAMILTONIAN

 (EXCHANGE)[CORRELATION] FUNCTIONAL:(HSE-3c)[PBEh-3c]

 RANGE-SEPARATED HYBRID FUNCTIONAL 
 OMEGA (SHORT-RANGE)[LONG-RANGE]:(    0.1100)[    0.0000]

 HYBRID EXCHANGE - PERCENTAGE OF FOCK EXCHANGE    42.0000

 CAPPA:IS1  2;IS2  2;IS3  2; K PTS MONK NET   8; SYMMOPS:K SPACE   2;G SPACE   1

 *******************************************************************************
 MAX NUMBER OF SCF CYCLES      50  CONVERGENCE ON DELTAP        10**-16
 WEIGHT OF F(I) IN F(I+1)      30% CONVERGENCE ON ENERGY        10**- 6
 S(K) EIGENV. THRESHOLD  10*10.**-4
 SHRINK. FACT.(MONKH.)    2  2  2  NUMBER OF K POINTS IN THE IBZ      8
 SHRINKING FACTOR(GILAT NET)    2  NUMBER OF K POINTS(GILAT NET)      8
 *******************************************************************************
 *** K POINTS COORDINATES (OBLIQUE COORDINATES IN UNITS OF IS =  2)
   1-R(  0  0  0)   2-R(  1  0  0)   3-R(  0  1  0)   4-R(  1  1  0)
   5-R(  0  0  1)   6-R(  1  0  1)   7-R(  0  1  1)   8-R(  1  1  1)

 DIRECT LATTICE VECTORS COMPON. (A.U.)     RECIP. LATTICE VECTORS COMPON. (A.U.) 
        X            Y            Z              X            Y            Z
    9.3945273   -6.1535799    0.0000000      0.6688134    0.0000000    0.6540879
    0.0000000   12.7697609    0.0000000      0.3222924    0.4920363    0.1140904
   -7.7723607    3.2482505    7.9473398      0.0000000    0.0000000    0.7906023

 DISK SPACE FOR EIGENVECTORS (FTN 10)      103968 REALS

 SYMMETRY ADAPTION OF THE BLOCH FUNCTIONS DISABLED
 TTTTTTTTTTTTTTTTTTTTTTTTTTTTTT gordsh1     TELAPSE        0.12 TCPU        0.04

 MATRIX SIZE: P(G)   75684, F(G)   12954, P(G) IRR   38577, F(G) IRR   13086
 MAX G-VECTOR INDEX FOR 1- AND 2-ELECTRON INTEGRALS 107

 TTTTTTTTTTTTTTTTTTTTTTTTTTTTTT INPUT       TELAPSE        0.12 TCPU        0.05

 NEIGHBORS OF THE NON-EQUIVALENT ATOMS

 N = NUMBER OF NEIGHBORS AT DISTANCE R
    ATOM  N     R/ANG      R/AU   NEIGHBORS (ATOM LABELS AND CELL INDICES)
   1 O    1     0.9611     1.8161    8 H    0 0 0
   1 O    1     0.9669     1.8271    7 H    0 0 0
   1 O    1     2.0981     3.9648   10 H    1 1 0
   1 O    1     2.5954     4.9045   15 H    0 1 0
   1 O    1     2.7130     5.1269   16 H    1 1 1
   1 O    1     2.7442     5.1859   17 H   -1 0-1

   2 O    1     0.9659     1.8252   10 H    0 0 0
   2 O    1     0.9761     1.8446    9 H    0 0 0
   2 O    1     1.7028     3.2179   11 H    0 0 0
   2 O    1     2.6854     5.0747    3 O    0 0 0
   2 O    1     2.7985     5.2884    3 O    1 0 1
   2 O    1     2.8606     5.4057    8 H    0 0 0

   3 O    1     0.9771     1.8464   12 H    0 0 0
   3 O    1     0.9870     1.8651   11 H    0 0 0
   3 O    1     1.8254     3.4496    9 H   -1 0-1
   3 O    1     1.9802     3.7421   16 H    0 0 0
   3 O    1     2.4220     4.5769   15 H   -1 0-1
   3 O    1     2.6854     5.0747    2 O    0 0 0

   4 O    1     0.9792     1.8504   13 H   -1 0-1
   4 O    1     0.9810     1.8539   14 H    0 0 0
   4 O    1     1.7612     3.3281   18 H    0 0 0
   4 O    1     1.9741     3.7304    7 H    0 0 0
   4 O    1     2.4655     4.6592    8 H   -1 0-1
   4 O    1     2.7342     5.1669    6 O   -1 0 0

   5 O    1     0.9638     1.8212   15 H    0 0 0
   5 O    1     0.9726     1.8380   16 H    0 0 0
   5 O    1     1.7892     3.3812   14 H    1 0 0
   5 O    1     2.3573     4.4546   17 H   -1-1-1
   5 O    1     2.7338     5.1661   10 H    0 0-1
   5 O    1     2.7565     5.2091    4 O    1 0 0

   6 O    1     0.9643     1.8223   17 H    0 0 0
   6 O    1     0.9833     1.8582   18 H    1 0 0
   6 O    1     1.7971     3.3960   13 H    1 0 0
   6 O    1     1.8160     3.4318   12 H    1 0 1
   6 O    1     2.7342     5.1669    4 O    1 0 0
   6 O    1     2.7582     5.2123    4 O    2 0 1

   7 H    1     0.9669     1.8271    1 O    0 0 0
   7 H    1     1.5272     2.8860    8 H    0 0 0
   7 H    1     1.9741     3.7304    4 O    0 0 0
   7 H    1     2.3702     4.4791   15 H    0 1 0
   7 H    1     2.4514     4.6324   18 H    0 0 0
   7 H    1     2.4710     4.6694   14 H    0 0 0

   8 H    1     0.9611     1.8161    1 O    0 0 0
   8 H    1     1.5272     2.8860    7 H    0 0 0
   8 H    1     2.3785     4.4948   13 H    0 0 0
   8 H    1     2.4655     4.6592    4 O    1 0 1
   8 H    1     2.5482     4.8155   17 H    0 0 0
   8 H    1     2.5831     4.8813   16 H    1 1 1

   9 H    1     0.9761     1.8446    2 O    0 0 0
   9 H    1     1.5670     2.9611   10 H    0 0 0
   9 H    1     1.8254     3.4496    3 O    1 0 1
   9 H    1     2.2922     4.3316   12 H    1 0 1
   9 H    1     2.3152     4.3751   11 H    1 0 1
   9 H    1     2.3274     4.3981   11 H    0 0 0

  10 H    1     0.9659     1.8252    2 O    0 0 0
  10 H    1     1.5670     2.9611    9 H    0 0 0
  10 H    1     2.0981     3.9648    1 O   -1-1 0
  10 H    1     2.3297     4.4025   11 H    0 0 0
  10 H    1     2.5670     4.8509   15 H   -1 0 0
  10 H    1     2.5724     4.8612   17 H   -1-1 0

  11 H    1     0.9870     1.8651    3 O    0 0 0
  11 H    1     1.5761     2.9784   12 H    0 0 0
  11 H    1     1.7028     3.2179    2 O    0 0 0
  11 H    1     2.1394     4.0429   16 H    0 0 0
  11 H    1     2.3152     4.3751    9 H   -1 0-1
  11 H    1     2.3274     4.3981    9 H    0 0 0

  12 H    1     0.9771     1.8464    3 O    0 0 0
  12 H    1     1.5761     2.9784   11 H    0 0 0
  12 H    1     1.8160     3.4318    6 O   -1 0-1
  12 H    1     2.2887     4.3250   16 H    0 0 0
  12 H    1     2.2916     4.3304   18 H    0 0-1
  12 H    1     2.2922     4.3316    9 H   -1 0-1

  13 H    1     0.9792     1.8504    4 O    1 0 1
  13 H    1     1.5484     2.9261   14 H    1 0 1
  13 H    1     1.7971     3.3960    6 O   -1 0 0
  13 H    1     2.2403     4.2336   18 H    1 0 1
  13 H    1     2.3779     4.4935   17 H   -1 0 0
  13 H    1     2.3785     4.4948    8 H    0 0 0

  14 H    1     0.9810     1.8539    4 O    0 0 0
  14 H    1     1.5484     2.9261   13 H   -1 0-1
  14 H    1     1.7892     3.3812    5 O   -1 0 0
  14 H    1     2.1604     4.0826   18 H    0 0 0
  14 H    1     2.2181     4.1917   16 H   -1 0 0
  14 H    1     2.2562     4.2636   15 H   -1 0 0

  15 H    1     0.9638     1.8212    5 O    0 0 0
  15 H    1     1.5464     2.9223   16 H    0 0 0
  15 H    1     2.2562     4.2636   14 H    1 0 0
  15 H    1     2.3702     4.4791    7 H    0-1 0
  15 H    1     2.4220     4.5769    3 O    1 0 1
  15 H    1     2.5487     4.8164    9 H    0 0 0

  16 H    1     0.9726     1.8380    5 O    0 0 0
  16 H    1     1.5464     2.9223   15 H    0 0 0
  16 H    1     1.9802     3.7421    3 O    0 0 0
  16 H    1     2.1394     4.0429   11 H    0 0 0
  16 H    1     2.2181     4.1917   14 H    1 0 0
  16 H    1     2.2887     4.3250   12 H    0 0 0

  17 H    1     0.9643     1.8223    6 O    0 0 0
  17 H    1     1.5719     2.9704   18 H    1 0 0
  17 H    1     2.3573     4.4546    5 O    1 1 1
  17 H    1     2.3721     4.4826   12 H    1 0 1
  17 H    1     2.3779     4.4935   13 H    1 0 0
  17 H    1     2.5482     4.8155    8 H    0 0 0

  18 H    1     0.9833     1.8582    6 O   -1 0 0
  18 H    1     1.5719     2.9704   17 H   -1 0 0
  18 H    1     1.7612     3.3281    4 O    0 0 0
  18 H    1     2.1604     4.0826   14 H    0 0 0
  18 H    1     2.2403     4.2336   13 H   -1 0-1
  18 H    1     2.2916     4.3304   12 H    0 0 1


 SYMMETRY ALLOWED INTERNAL DEGREE(S) OF FREEDOM:  51
 TTTTTTTTTTTTTTTTTTTTTTTTTTTTTT SYMM        TELAPSE        0.13 TCPU        0.05
 TTTTTTTTTTTTTTTTTTTTTTTTTTTTTT INT_SCREEN  TELAPSE        0.13 TCPU        0.05

 DFT PARAMETERS

     ATOM       ELECTRONS   NET CHARGE   R(ANGSTROM)
   1   8  O       8.0000      0.0000     0.74000000
   7   1  H       1.0000      0.0000     1.11000000

 SIZE OF GRID=     390202
 TTTTTTTTTTTTTTTTTTTTTTTTTTTTTT MAKE_GRID2  TELAPSE        8.35 TCPU        8.23
 BECKE WEIGHT FUNCTION
 RADSAFE =     2.00
 TOLERANCES - DENSITY:10**- 6; POTENTIAL:10**- 9; GRID WGT:10**-14

 RADIAL INTEGRATION  - INTERVALS (POINTS,UPPER LIMIT):            1( 75,  4.0*R)

 ANGULAR INTEGRATION - INTERVALS (ACCURACY LEVEL [N. POINTS] UPPER LIMIT):
  1(  4[  86]   0.2)  2(  8[ 194]   0.5)  3( 12[ 350]   0.9)  4( 16[ 974]   3.5)
  5( 12[ 350]9999.0)
 TTTTTTTTTTTTTTTTTTTTTTTTTTTTTT INT_CALC    TELAPSE        8.37 TCPU        8.26
 EEEEEEEEEE INT_CALC TERMINATION  DATE 25 03 2019 TIME 20:28:28.7

 *******************************************************************************
 !drive by JGB                                                                   
 CRYSTAL - SCF - TYPE OF CALCULATION :  RESTRICTED CLOSED SHELL
 *******************************************************************************

 CAPPA:IS1  2;IS2  2;IS3  2; K PTS MONK NET   8; SYMMOPS:K SPACE   2;G SPACE   1

 TTTTTTTTTTTTTTTTTTTTTTTTTTTTTT SDIK        TELAPSE        8.52 TCPU        8.34

 AAAAAAAAAAAAAAAAAAAAAAAAAAAAAAAAAAAAAAAAAAAAAAAAAAAAAAAAAAAAAAAAAAAAAAAAAAAAAAA
         ATOMIC WAVEFUNCTION(S)


 NUCLEAR CHARGE  8.0  SYMMETRY SPECIES            S    P
 N. ELECTRONS    8.0  NUMBER OF PRIMITIVE GTOS    8    4
                      NUMBER OF CONTRACTED GTOS   4    2
                      NUMBER OF CLOSED SHELLS     2    0
                      OPEN SHELL OCCUPATION       0    4

  ZNUC SCFIT  TOTAL HF ENERGY   KINETIC ENERGY   VIRIAL THEOREM ACCURACY
   8.0  12   -7.477373220E+01  7.477365593E+01 -2.000001020E+00  3.8E-06

 NUCLEAR CHARGE  1.0  SYMMETRY SPECIES            S
 N. ELECTRONS    1.0  NUMBER OF PRIMITIVE GTOS    4
                      NUMBER OF CONTRACTED GTOS   2
                      NUMBER OF CLOSED SHELLS     0
                      OPEN SHELL OCCUPATION       1

  ZNUC SCFIT  TOTAL HF ENERGY   KINETIC ENERGY   VIRIAL THEOREM ACCURACY
   1.0   1   -4.977266687E-01  5.190767460E-01 -1.958869132E+00  1.8E-16

 AAAAAAAAAAAAAAAAAAAAAAAAAAAAAAAAAAAAAAAAAAAAAAAAAAAAAAAAAAAAAAAAAAAAAAAAAAAAAAA

 CHARGE NORMALIZATION FACTOR   1.00000000
 TOTAL ATOMIC CHARGES:
   8.0000000   8.0000000   8.0000000   8.0000000   8.0000000   8.0000000
   1.0000000   1.0000000   1.0000000   1.0000000   1.0000000   1.0000000
   1.0000000   1.0000000   1.0000000   1.0000000   1.0000000   1.0000000
 TTTTTTTTTTTTTTTTTTTTTTTTTTTTTT MOQGAD      TELAPSE        8.75 TCPU        8.57
 TTTTTTTTTTTTTTTTTTTTTTTTTTTTTT SHELLXN     TELAPSE       20.12 TCPU       19.86
 TTTTTTTTTTTTTTTTTTTTTTTTTTTTTT MONMO3      TELAPSE       21.47 TCPU       21.20
 NUMERICALLY INTEGRATED DENSITY     60.0000008965
 TTTTTTTTTTTTTTTTTTTTTTTTTTTTTT NUMDFT      TELAPSE       22.18 TCPU       21.92
 CYC   0 ETOT(AU) -4.578113368241E+02 DETOT -4.58E+02 tst  0.00E+00 PX  1.00E+00
 TTTTTTTTTTTTTTTTTTTTTTTTTTTTTT DIIS        TELAPSE       22.20 TCPU       21.94
 TTTTTTTTTTTTTTTTTTTTTTTTTTTTTT FDIK        TELAPSE       22.39 TCPU       22.08
 INSULATING STATE
 TOP OF VALENCE BANDS -    BAND     30; K    3; EIG -4.1323396E-01 AU
 TOP OF VALENCE BANDS -    BAND     30; K    1; EIG -4.1419394E-01 AU
 BOTTOM OF VIRTUAL BANDS - BAND     31; K    1; EIG -1.0861808E-01 AU
 INDIRECT ENERGY BAND GAP:   8.2890 eV
 TTTTTTTTTTTTTTTTTTTTTTTTTTTTTT PDIG        TELAPSE       22.39 TCPU       22.08
 CHARGE NORMALIZATION FACTOR   1.00000000
 TOTAL ATOMIC CHARGES:
   9.0809501   9.0878400   9.0830414   9.0710922   9.0440059   9.0467766
   0.4618182   0.4719895   0.4628758   0.4599036   0.4613264   0.4697640
   0.4620934   0.4714469   0.4653923   0.4711963   0.4626767   0.4658107
 TTTTTTTTTTTTTTTTTTTTTTTTTTTTTT MOQGAD      TELAPSE       22.39 TCPU       22.08
 TTTTTTTTTTTTTTTTTTTTTTTTTTTTTT SHELLXN     TELAPSE       34.00 TCPU       33.63
 TTTTTTTTTTTTTTTTTTTTTTTTTTTTTT MONMO3      TELAPSE       35.43 TCPU       35.04
 NUMERICALLY INTEGRATED DENSITY     60.0000043626
 TTTTTTTTTTTTTTTTTTTTTTTTTTTTTT NUMDFT      TELAPSE       37.12 TCPU       36.72
 CYC   1 ETOT(AU) -4.575737676196E+02 DETOT  2.38E-01 tst  0.00E+00 PX  1.00E+00
 TTTTTTTTTTTTTTTTTTTTTTTTTTTTTT DIIS        TELAPSE       37.12 TCPU       36.73
 DIIS TEST: 0.70395E+00 AT SCF   CYCLE   1 - MIX   30 %
 TTTTTTTTTTTTTTTTTTTTTTTTTTTTTT FDIK        TELAPSE       37.13 TCPU       36.73
 INSULATING STATE
 TOP OF VALENCE BANDS -    BAND     30; K    3; EIG -3.0711347E-01 AU
 TOP OF VALENCE BANDS -    BAND     30; K    1; EIG -3.0878002E-01 AU
 BOTTOM OF VIRTUAL BANDS - BAND     31; K    1; EIG -4.9025402E-02 AU
 INDIRECT ENERGY BAND GAP:   7.0229 eV
 TTTTTTTTTTTTTTTTTTTTTTTTTTTTTT PDIG        TELAPSE       37.13 TCPU       36.73
 CHARGE NORMALIZATION FACTOR   1.00000000
 TOTAL ATOMIC CHARGES:
   8.8077619   8.8453900   8.8599351   8.8542451   8.8009128   8.8273410
   0.5891796   0.6168669   0.5865433   0.5858007   0.5667568   0.5805084
   0.5686686   0.5744587   0.5908281   0.5935609   0.5787229   0.5725191
 TTTTTTTTTTTTTTTTTTTTTTTTTTTTTT MOQGAD      TELAPSE       37.14 TCPU       36.74
 TTTTTTTTTTTTTTTTTTTTTTTTTTTTTT SHELLXN     TELAPSE       48.71 TCPU       48.29
 TTTTTTTTTTTTTTTTTTTTTTTTTTTTTT MONMO3      TELAPSE       50.15 TCPU       49.73
 NUMERICALLY INTEGRATED DENSITY     60.0000042072
 TTTTTTTTTTTTTTTTTTTTTTTTTTTTTT NUMDFT      TELAPSE       51.84 TCPU       51.41
 CYC   2 ETOT(AU) -4.577128788287E+02 DETOT -1.39E-01 tst  2.95E-03 PX  1.41E-01
 TTTTTTTTTTTTTTTTTTTTTTTTTTTTTT DIIS        TELAPSE       51.85 TCPU       51.41
 DIIS TEST: 0.16242E+00 AT SCF   CYCLE   2 - DIIS ACTIVE - HISTORY:     2 CYCLES
 TTTTTTTTTTTTTTTTTTTTTTTTTTTTTT FDIK        TELAPSE       51.94 TCPU       51.42
 INSULATING STATE
 TOP OF VALENCE BANDS -    BAND     30; K    3; EIG -3.6142120E-01 AU
 TOP OF VALENCE BANDS -    BAND     30; K    1; EIG -3.6398298E-01 AU
 BOTTOM OF VIRTUAL BANDS - BAND     31; K    1; EIG -5.3551069E-02 AU
 INDIRECT ENERGY BAND GAP:   8.3776 eV
 TTTTTTTTTTTTTTTTTTTTTTTTTTTTTT PDIG        TELAPSE       51.95 TCPU       51.43
 CHARGE NORMALIZATION FACTOR   1.00000000
 TOTAL ATOMIC CHARGES:
   8.8973515   8.9217943   8.9378295   8.9303196   8.8869509   8.8989345
   0.5451565   0.5721884   0.5443113   0.5479479   0.5277462   0.5419638
   0.5301576   0.5355845   0.5522478   0.5484995   0.5468773   0.5341388
 TTTTTTTTTTTTTTTTTTTTTTTTTTTTTT MOQGAD      TELAPSE       51.95 TCPU       51.43
 TTTTTTTTTTTTTTTTTTTTTTTTTTTTTT SHELLXN     TELAPSE       63.53 TCPU       62.98
 TTTTTTTTTTTTTTTTTTTTTTTTTTTTTT MONMO3      TELAPSE       64.96 TCPU       64.41
 NUMERICALLY INTEGRATED DENSITY     60.0000042923
 TTTTTTTTTTTTTTTTTTTTTTTTTTTTTT NUMDFT      TELAPSE       66.64 TCPU       66.07
 CYC   3 ETOT(AU) -4.577560057401E+02 DETOT -4.31E-02 tst  2.49E-04 PX  5.70E-02
 TTTTTTTTTTTTTTTTTTTTTTTTTTTTTT DIIS        TELAPSE       66.64 TCPU       66.08
 DIIS TEST: 0.10489E-02 AT SCF   CYCLE   3 - DIIS ACTIVE - HISTORY:     3 CYCLES
 TTTTTTTTTTTTTTTTTTTTTTTTTTTTTT FDIK        TELAPSE       66.65 TCPU       66.08
 INSULATING STATE
 TOP OF VALENCE BANDS -    BAND     30; K    3; EIG -3.5713458E-01 AU
 TOP OF VALENCE BANDS -    BAND     30; K    1; EIG -3.5859456E-01 AU
 BOTTOM OF VIRTUAL BANDS - BAND     31; K    1; EIG -5.0242382E-02 AU
 INDIRECT ENERGY BAND GAP:   8.3510 eV
 TTTTTTTTTTTTTTTTTTTTTTTTTTTTTT PDIG        TELAPSE       66.65 TCPU       66.08
 CHARGE NORMALIZATION FACTOR   1.00000000
 TOTAL ATOMIC CHARGES:
   8.8850399   8.9199397   8.9371820   8.9307195   8.8772921   8.8987153
   0.5499765   0.5772689   0.5450096   0.5497472   0.5285429   0.5426394
   0.5307608   0.5368751   0.5563796   0.5518273   0.5479681   0.5341159
 TTTTTTTTTTTTTTTTTTTTTTTTTTTTTT MOQGAD      TELAPSE       66.65 TCPU       66.09
 TTTTTTTTTTTTTTTTTTTTTTTTTTTTTT SHELLXN     TELAPSE       78.24 TCPU       77.64
 TTTTTTTTTTTTTTTTTTTTTTTTTTTTTT MONMO3      TELAPSE       79.66 TCPU       79.05
 NUMERICALLY INTEGRATED DENSITY     60.0000043508
 TTTTTTTTTTTTTTTTTTTTTTTTTTTTTT NUMDFT      TELAPSE       81.32 TCPU       80.71
 CYC   4 ETOT(AU) -4.577561815792E+02 DETOT -1.76E-04 tst  2.38E-06 PX  5.50E-03
 TTTTTTTTTTTTTTTTTTTTTTTTTTTTTT DIIS        TELAPSE       81.32 TCPU       80.72
 DIIS TEST: 0.14639E-03 AT SCF   CYCLE   4 - DIIS ACTIVE - HISTORY:     4 CYCLES
 TTTTTTTTTTTTTTTTTTTTTTTTTTTTTT FDIK        TELAPSE       81.41 TCPU       80.76
 INSULATING STATE
 TOP OF VALENCE BANDS -    BAND     30; K    3; EIG -3.5801349E-01 AU
 TOP OF VALENCE BANDS -    BAND     30; K    1; EIG -3.6027313E-01 AU
 BOTTOM OF VIRTUAL BANDS - BAND     31; K    1; EIG -4.9935144E-02 AU
 INDIRECT ENERGY BAND GAP:   8.3832 eV
 TTTTTTTTTTTTTTTTTTTTTTTTTTTTTT PDIG        TELAPSE       81.41 TCPU       80.77
 CHARGE NORMALIZATION FACTOR   1.00000000
 TOTAL ATOMIC CHARGES:
   8.8906364   8.9181072   8.9342510   8.9268484   8.8816064   8.8959247
   0.5480280   0.5753884   0.5458646   0.5502496   0.5295161   0.5438251
   0.5320638   0.5375848   0.5549643   0.5507504   0.5490244   0.5353664
 TTTTTTTTTTTTTTTTTTTTTTTTTTTTTT MOQGAD      TELAPSE       81.41 TCPU       80.77
 TTTTTTTTTTTTTTTTTTTTTTTTTTTTTT SHELLXN     TELAPSE       92.98 TCPU       92.31
 TTTTTTTTTTTTTTTTTTTTTTTTTTTTTT MONMO3      TELAPSE       94.42 TCPU       93.75
 NUMERICALLY INTEGRATED DENSITY     60.0000043317
 TTTTTTTTTTTTTTTTTTTTTTTTTTTTTT NUMDFT      TELAPSE       96.08 TCPU       95.41
 CYC   5 ETOT(AU) -4.577562012175E+02 DETOT -1.96E-05 tst  6.39E-07 PX  2.93E-03
 TTTTTTTTTTTTTTTTTTTTTTTTTTTTTT DIIS        TELAPSE       96.10 TCPU       95.41
 DIIS TEST: 0.56858E-04 AT SCF   CYCLE   5 - DIIS ACTIVE - HISTORY:     5 CYCLES
 TTTTTTTTTTTTTTTTTTTTTTTTTTTTTT FDIK        TELAPSE       96.11 TCPU       95.42
 INSULATING STATE
 TOP OF VALENCE BANDS -    BAND     30; K    3; EIG -3.5762778E-01 AU
 TOP OF VALENCE BANDS -    BAND     30; K    1; EIG -3.5957768E-01 AU
 BOTTOM OF VIRTUAL BANDS - BAND     31; K    1; EIG -4.9852781E-02 AU
 INDIRECT ENERGY BAND GAP:   8.3750 eV
 TTTTTTTTTTTTTTTTTTTTTTTTTTTTTT PDIG        TELAPSE       96.11 TCPU       95.42
 CHARGE NORMALIZATION FACTOR   1.00000000
 TOTAL ATOMIC CHARGES:
   8.8882933   8.9187633   8.9355247   8.9286446   8.8795964   8.8968190
   0.5487864   0.5762485   0.5455630   0.5500280   0.5290752   0.5433637
   0.5314771   0.5372249   0.5556880   0.5512980   0.5486670   0.5349388
 TTTTTTTTTTTTTTTTTTTTTTTTTTTTTT MOQGAD      TELAPSE       96.11 TCPU       95.42
 TTTTTTTTTTTTTTTTTTTTTTTTTTTTTT SHELLXN     TELAPSE      107.72 TCPU      106.97
 TTTTTTTTTTTTTTTTTTTTTTTTTTTTTT MONMO3      TELAPSE      109.11 TCPU      108.36
 NUMERICALLY INTEGRATED DENSITY     60.0000043399
 TTTTTTTTTTTTTTTTTTTTTTTTTTTTTT NUMDFT      TELAPSE      110.81 TCPU      110.04
 CYC   6 ETOT(AU) -4.577562148357E+02 DETOT -1.36E-05 tst  1.14E-07 PX  1.11E-03
 TTTTTTTTTTTTTTTTTTTTTTTTTTTTTT DIIS        TELAPSE      110.82 TCPU      110.04
 DIIS TEST: 0.15196E-05 AT SCF   CYCLE   6 - DIIS ACTIVE - HISTORY:     6 CYCLES
 TTTTTTTTTTTTTTTTTTTTTTTTTTTTTT FDIK        TELAPSE      110.86 TCPU      110.05
 INSULATING STATE
 TOP OF VALENCE BANDS -    BAND     30; K    3; EIG -3.5761884E-01 AU
 TOP OF VALENCE BANDS -    BAND     30; K    1; EIG -3.5956357E-01 AU
 BOTTOM OF VIRTUAL BANDS - BAND     31; K    1; EIG -4.9828023E-02 AU
 INDIRECT ENERGY BAND GAP:   8.3754 eV
 TTTTTTTTTTTTTTTTTTTTTTTTTTTTTT PDIG        TELAPSE      110.86 TCPU      110.05
 CHARGE NORMALIZATION FACTOR   1.00000000
 TOTAL ATOMIC CHARGES:
   8.8882876   8.9187457   8.9353061   8.9282202   8.8797957   8.8969461
   0.5488145   0.5762693   0.5455759   0.5500631   0.5291406   0.5434217
   0.5315946   0.5373385   0.5556355   0.5512505   0.5486578   0.5349365
 TTTTTTTTTTTTTTTTTTTTTTTTTTTTTT MOQGAD      TELAPSE      110.86 TCPU      110.05
 TTTTTTTTTTTTTTTTTTTTTTTTTTTTTT SHELLXN     TELAPSE      122.45 TCPU      121.61
 TTTTTTTTTTTTTTTTTTTTTTTTTTTTTT MONMO3      TELAPSE      123.90 TCPU      123.04
 NUMERICALLY INTEGRATED DENSITY     60.0000043377
 TTTTTTTTTTTTTTTTTTTTTTTTTTTTTT NUMDFT      TELAPSE      125.57 TCPU      124.72
 CYC   7 ETOT(AU) -4.577562148477E+02 DETOT -1.21E-08 tst  1.89E-09 PX  1.94E-04
 TTTTTTTTTTTTTTTTTTTTTTTTTTTTTT DIIS        TELAPSE      125.59 TCPU      124.73
 DIIS TEST: 0.19223E-06 AT SCF   CYCLE   7 - DIIS ACTIVE - HISTORY:     7 CYCLES
 TTTTTTTTTTTTTTTTTTTTTTTTTTTTTT FDIK        TELAPSE      125.61 TCPU      124.74
 INSULATING STATE
 TOP OF VALENCE BANDS -    BAND     30; K    3; EIG -3.5761816E-01 AU
 TOP OF VALENCE BANDS -    BAND     30; K    1; EIG -3.5959027E-01 AU
 BOTTOM OF VIRTUAL BANDS - BAND     31; K    1; EIG -4.9824636E-02 AU
 INDIRECT ENERGY BAND GAP:   8.3755 eV
 TTTTTTTTTTTTTTTTTTTTTTTTTTTTTT PDIG        TELAPSE      125.61 TCPU      124.74
 CHARGE NORMALIZATION FACTOR   1.00000000
 TOTAL ATOMIC CHARGES:
   8.8883720   8.9186514   8.9353949   8.9284922   8.8796564   8.8966664
   0.5487720   0.5762277   0.5456040   0.5500850   0.5291314   0.5434220
   0.5315413   0.5372729   0.5556826   0.5512885   0.5487476   0.5349918
 TTTTTTTTTTTTTTTTTTTTTTTTTTTTTT MOQGAD      TELAPSE      125.62 TCPU      124.74
 TTTTTTTTTTTTTTTTTTTTTTTTTTTTTT SHELLXN     TELAPSE      137.24 TCPU      136.29
 +++ ENERGIES IN A.U. +++
 ::: EXT EL-POLE                                  -5.1652119027075E+02
 ::: EXT EL-SPHEROPOLE                             6.3144028810454E+00
 ::: BIELET ZONE E-E                               6.2767129342989E+02
 ::: TOTAL E-E                                     1.1746450604018E+02
 ::: TOTAL E-N + N-E                              -8.9766508840933E+02
 ::: TOTAL N-N                                    -9.8087123389083E+01
 ::: KINETIC ENERGY                                4.5483164095358E+02
 ::: PSEUDO TOTAL   ENERGY                        -4.2345606480465E+02
 ::: VIRIAL COEFFICIENT                            1.0357235743404E+00
 TTTTTTTTTTTTTTTTTTTTTTTTTTTTTT MONMO3      TELAPSE      138.63 TCPU      137.68
 NUMERICALLY INTEGRATED DENSITY     60.0000043402
 TTTTTTTTTTTTTTTTTTTTTTTTTTTTTT NUMDFT      TELAPSE      140.29 TCPU      139.32
 CYC   8 ETOT(AU) -4.577562148592E+02 DETOT -1.15E-08 tst  1.76E-09 PX  1.94E-04

 == SCF ENDED - CONVERGENCE ON ENERGY      E(AU) -4.5775621485925E+02 CYCLES   8


 ENERGY EXPRESSION=HARTREE+FOCK EXCH*0.00000+(HSE-3c     EXCH)*1.00000+PBEh-3c    CORR


 TOTAL ENERGY(DFT)(AU)(  8) -4.5775621485925E+02 DE-1.1E-08 tester 1.8E-09
 TTTTTTTTTTTTTTTTTTTTTTTTTTTTTT EDFT        TELAPSE      140.29 TCPU      139.33
 
 INFORMATION **** DFTD3 ENERGY **** CALCULATE DFTD3 ENERGY

           DFT-D V3(BJ)
 DF                                         hse3c     
 parameters
 s6       :    1.0000
 s8       :    0.0000
 a1       :    0.4411
 a2       :    4.5182
 k1 k3    :   16.0000   -4.0000
 Cutoff   :   50.2022
 CN-Cutoff:   21.1671
 
 Edisp /kcal,au:   -12.6386 -0.02014096

 E6    /kcal :   -13.6658
 E8    /kcal :     0.0000
 E6(ABC) "   :   1.027155
 
 INFORMATION **** DFTD3 ENERGY **** NORMAL TERMINATION OF DFTD3 MODULE

 GCP ENERGY CALCULATION
  level           hse3c               basis:hse3c
  Nbf            114
  Atoms           18

  Parameters: 
  sigma     1.0000
  eta       1.4086
  alpha     0.2908
  beta      1.9526

  dmp_scal      4.0000
  dmp_exp       6.0000
 cutoffs: 
   distance [bohr] 60.0
   noise    [a.u.] 2.2E-16
 SR-damping   T
 ** gCP correction **
  Egcp:        0.0696319579 / (a.u.) ||      43.6947 / (kcal/mol)
 INFORMATION **** GCP **** NORMAL TERMINATION OF GCP MODULE

 *******************************************************************************

 DFT-D3-GCP DISPERSION AND COUNTERPOISE CORRECTION

 D3 DISPERSION ENERGY (AU)      -2.0140964425864E-02
 GCP ENERGY (AU)                 6.9631957898907E-02
 TOTAL ENERGY + DISP + GCP (AU) -4.5770672386577E+02

 *******************************************************************************

 EIGENVECTORS IN FORTRAN UNIT  8
 TTTTTTTTTTTTTTTTTTTTTTTTTTTTTT END         TELAPSE      141.09 TCPU      140.07
 EEEEEEEEEE TERMINATION  DATE 25 03 2019 TIME 20:30:41.5
NODE    0 CPU TIME =       140.070
NODE    1 CPU TIME =       139.940
NODE    2 CPU TIME =       140.213
NODE    3 CPU TIME =       140.448
NODE    4 CPU TIME =       140.428
NODE    5 CPU TIME =       140.461
NODE    6 CPU TIME =       140.283
NODE    7 CPU TIME =       140.212
    TOTAL CPU TIME =      1122.054
