 PROCESS            0  OF            8  WORKING
 PROCESS            3  OF            8  WORKING
 PROCESS            2  OF            8  WORKING
 PROCESS            6  OF            8  WORKING
 PROCESS            4  OF            8  WORKING
 PROCESS            1  OF            8  WORKING
 PROCESS            5  OF            8  WORKING
 PROCESS            7  OF            8  WORKING

         
 *******************************************************************************
 *                                                                             *
 *                               CRYSTAL17                                     *
 *                      public : 1.0.1 - Feb 1st, 2017                         *
 *                       HTTP://WWW.CRYSTAL.UNITO.IT                           *
 *                                                                             *
 *                              MAIN AUTHORS                                   *
 *                                                                             *
 *  R. DOVESI(1,11), V.R. SAUNDERS(2), C. ROETTI(1,11), R. ORLANDO(1,11),      *
 *  C.M. ZICOVICH-WILSON(1,3), F. PASCALE(4), B. CIVALLERI(1,11),              *
 *  K. DOLL(5), N.M. HARRISON(2,6), I.J. BUSH(7), Ph. D'ARCO(8),               *
 *  M. LLUNELL(9), M. CAUSA'(10), Y. NOEL(8), L. MASCHIO(1,11), A. ERBA(1,11)  *
 *  M. RE'RAT(14), S. CASASSA(1,11)                                            *
 *                                                                             *
 *        CONTRIBUTIONS TO THE CODE HAVE ALSO BEEN GIVEN BY                    *
 *                                                                             *
 *  M. FERRABONE(1,11), M. DE LA PIERRE(1,11), M. FERRERO(1,11),               *
 *  J. BAIMA(1,11), E. ALBANESE(1,11), M.F. PEINTINGER(12), R. BAST(13),       *
 *  B. KIRTMAN(15), V. LACIVITA(1,11), R. DEMICHELIS(1,16)                     *
 *  G. BRANDEBURG(17), S. SALUSTRO(1,11), G. SANSONE(1,11)                     *
 *  M.T. RUGGIERO(18)                                                          *
 *                                                                             *
 * (1) THEORETICAL CHEMISTRY GROUP - UNIVERSITA' DI TORINO - TORINO (ITALY)    *

 * (2) COMPUTATIONAL SCIENCE & ENGINEERING DEPARTMENT - STFC DARESBURY (UK)    *
 * (3) UNIVERSIDAD AUTONOMA DEL ESTADO DE MORELOS - CUERNAVACA (MEXICO)        *
 * (4) UNIVERSITE' DE LORRAINE - NANCY (FRANCE)                                *
 * (5) UNIVERSITAET STUTTGART- STUTTGART (GERMANY)                             *
 * (6) IMPERIAL COLLEGE - LONDON (UK)                                          *
 * (7) OXFORD E-RESEARCH CENTRE - OXFORD (UK)                                  *
 * (8) UPMC - SORBONNE UNIVERSITES - PARIS (FRANCE)                            *
 * (9) UNIVERSIDAD DE BARCELONA - BARCELONA (SPAIN)                            *
 *(10) UNIVERSITA' DI NAPOLI "FEDERICO II" - NAPOLI (ITALY)                    *
 *(11) NIS - NANOSTRUCTURED INTERFACES AND SURFACES - TORINO (ITALY)           *
 *(12) MPI FUER CHEMISCHE ENERGIEKONVERSION - MUELHEIM AN DER RUHR (GERMANY)   *
 *(13) UNIVERSITY OF TROMSO - TROMSO (NORWAY)                                  *
 *(14) UNIVERSITE' DE PAU ET DES PAYS DE L'ADOUR - PAU (FRANCE)                *
 *(15) UNIVERSITY OF CALIFORNIA SANTA BARBARA - SANTA BARBARA (USA)            *
 *(16) CURTIN UNIVERSITY - PERTH (AUSTRALIA)                                   *
 *(17) UNIVERSITY COLLEGE LONDON - LONDON (UK)                                 *
 *(18) CAMBRIDGE UNIVERSITY - CAMBRIDGE (UK)                                   *
 *                                                                             *
 *******************************************************************************
 EEEEEEEEEE STARTING  DATE 25 03 2019 TIME 17:52:40.9
 !drive by JGB                                                                   

 CRYSTAL CALCULATION
 (INPUT ACCORDING TO THE INTERNATIONAL TABLES FOR X-RAY CRYSTALLOGRAPHY)
 CRYSTAL FAMILY                       :  MONOCLINIC  
 CRYSTAL CLASS  (GROTH - 1921)        :  MONOCLINIC SPHENOIDAL                

 SPACE GROUP (NONCENTROSYMMETRIC)     :  P 21            

 LATTICE PARAMETERS  (ANGSTROMS AND DEGREES) - CONVENTIONAL CELL
        A           B           C        ALPHA        BETA       GAMMA
     4.30283    11.41301     6.47180    90.00000    98.42142    90.00000


 NUMBER OF IRREDUCIBLE ATOMS IN THE CONVENTIONAL CELL:   18

 INPUT COORDINATES

 ATOM AT. N.              COORDINATES
   1   8     1.332337255452E-01  1.687914824258E-02  8.860153917006E-01
   2   8     6.057483917666E-01  1.676115501823E-01  8.807985731247E-01
   3   8     8.801260244620E-02  4.877221709343E-01  5.431612445743E-01
   4   8     3.866814457200E-02  2.216498553317E-01  4.500304962826E-01
   5   8     5.219337263945E-01  2.803961166335E-01  2.346677412396E-01
   6   8     6.413574502915E-01  4.009272139802E-01  7.398025047309E-01
   7   1     1.987068050361E-01  9.756813483096E-01  1.774180342576E-02
   8   1     3.024437752997E-01  7.387124270872E-02  8.725365787343E-01
   9   1     7.990320934542E-01  1.216941008697E-01  8.949824861294E-01
  10   1     5.900834621870E-01  2.044783477251E-01  1.632004967296E-02
  11   1     3.624397369928E-02  4.768577851326E-01  3.930387404383E-01
  12   1     9.240243842461E-01  4.463940195295E-01  6.073693952955E-01
  13   1     1.358613216698E-02  1.364662886959E-01  4.528802971171E-01
  14   1     2.149822484757E-01  2.391643025094E-01  3.755257321259E-01
  15   1     7.272154865844E-01  2.621438036404E-01  3.270054480242E-01
  16   1     5.322048421300E-01  3.623411739227E-01  2.011891225179E-01
  17   1     4.374850946866E-01  4.284130242104E-01  6.666666666667E-01
  18   1     6.275558862510E-01  3.159785074414E-01  7.546550898404E-01

 *******************************************************************************

 << INFORMATION >>: FROM NOW ON, ALL COORDINATES REFER TO THE PRIMITIVE CELL

 *******************************************************************************

 LATTICE PARAMETERS  (ANGSTROMS AND DEGREES) - PRIMITIVE CELL
       A          B          C        ALPHA      BETA     GAMMA        VOLUME
    4.30283   11.41301    6.47180    90.00000  98.42142  90.00000    314.391483

 COORDINATES OF THE EQUIVALENT ATOMS (FRACTIONAL UNITS)

 N. ATOM EQUIV AT. N.          X                  Y                  Z

   1   1   1    8 O     1.33233725545E-01  1.68791482426E-02 -1.13984608299E-01
   2   1   2    8 O    -1.33233725545E-01 -4.83120851757E-01  1.13984608299E-01

   3   2   1    8 O    -3.94251608233E-01  1.67611550182E-01 -1.19201426875E-01
   4   2   2    8 O     3.94251608233E-01 -3.32388449818E-01  1.19201426875E-01

   5   3   1    8 O     8.80126024462E-02  4.87722170934E-01 -4.56838755426E-01
   6   3   2    8 O    -8.80126024462E-02 -1.22778290657E-02  4.56838755426E-01

   7   4   1    8 O     3.86681445720E-02  2.21649855332E-01  4.50030496283E-01
   8   4   2    8 O    -3.86681445720E-02 -2.78350144668E-01 -4.50030496283E-01

   9   5   1    8 O    -4.78066273606E-01  2.80396116634E-01  2.34667741240E-01
  10   5   2    8 O     4.78066273606E-01 -2.19603883366E-01 -2.34667741240E-01

  11   6   1    8 O    -3.58642549708E-01  4.00927213980E-01 -2.60197495269E-01
  12   6   2    8 O     3.58642549708E-01 -9.90727860198E-02  2.60197495269E-01

  13   7   1    1 H     1.98706805036E-01 -2.43186516904E-02  1.77418034258E-02
  14   7   2    1 H    -1.98706805036E-01  4.75681348310E-01 -1.77418034258E-02

  15   8   1    1 H     3.02443775300E-01  7.38712427087E-02 -1.27463421266E-01
  16   8   2    1 H    -3.02443775300E-01 -4.26128757291E-01  1.27463421266E-01

  17   9   1    1 H    -2.00967906546E-01  1.21694100870E-01 -1.05017513871E-01
  18   9   2    1 H     2.00967906546E-01 -3.78305899130E-01  1.05017513871E-01

  19  10   1    1 H    -4.09916537813E-01  2.04478347725E-01  1.63200496730E-02
  20  10   2    1 H     4.09916537813E-01 -2.95521652275E-01 -1.63200496730E-02

  21  11   1    1 H     3.62439736993E-02  4.76857785133E-01  3.93038740438E-01
  22  11   2    1 H    -3.62439736993E-02 -2.31422148674E-02 -3.93038740438E-01

  23  12   1    1 H    -7.59756157539E-02  4.46394019529E-01 -3.92630604704E-01
  24  12   2    1 H     7.59756157539E-02 -5.36059804705E-02  3.92630604704E-01

  25  13   1    1 H     1.35861321670E-02  1.36466288696E-01  4.52880297117E-01
  26  13   2    1 H    -1.35861321670E-02 -3.63533711304E-01 -4.52880297117E-01

  27  14   1    1 H     2.14982248476E-01  2.39164302509E-01  3.75525732126E-01
  28  14   2    1 H    -2.14982248476E-01 -2.60835697491E-01 -3.75525732126E-01

  29  15   1    1 H    -2.72784513416E-01  2.62143803640E-01  3.27005448024E-01
  30  15   2    1 H     2.72784513416E-01 -2.37856196360E-01 -3.27005448024E-01

  31  16   1    1 H    -4.67795157870E-01  3.62341173923E-01  2.01189122518E-01
  32  16   2    1 H     4.67795157870E-01 -1.37658826077E-01 -2.01189122518E-01

  33  17   1    1 H     4.37485094687E-01  4.28413024210E-01 -3.33333333333E-01
  34  17   2    1 H    -4.37485094687E-01 -7.15869757896E-02  3.33333333333E-01

  35  18   1    1 H    -3.72444113749E-01  3.15978507441E-01 -2.45344910160E-01
  36  18   2    1 H     3.72444113749E-01 -1.84021492559E-01  2.45344910160E-01

 NUMBER OF SYMMETRY OPERATORS         :    2
 *******************************************************************************
 * GEOMETRY EDITING - INPUT COORDINATES ARE GIVEN IN ANGSTROM         
 *******************************************************************************

 GEOMETRY NOW FULLY CONSISTENT WITH THE GROUP

 GCALCO - MAX INDICES DIRECT LATTICE VECTOR    24     8    16
 NO.OF VECTORS CREATED 6999 STARS 1940 RMAX   152.58486 BOHR

 GEOMETRY FOR WAVE FUNCTION - DIMENSIONALITY OF THE SYSTEM    3
 (NON PERIODIC DIRECTION: LATTICE PARAMETER FORMALLY SET TO 500)
 *******************************************************************************
 LATTICE PARAMETERS (ANGSTROMS AND DEGREES) - BOHR = 0.5291772083 ANGSTROM
 PRIMITIVE CELL - CENTRING CODE 1/0 VOLUME=   314.391483 - DENSITY  1.142 g/cm^3
         A              B              C           ALPHA      BETA       GAMMA 
     4.30282570    11.41300667     6.47179998    90.000000  98.421417  90.000000
 *******************************************************************************
 ATOMS IN THE ASYMMETRIC UNIT   18 - ATOMS IN THE UNIT CELL:   36
     ATOM                 X/A                 Y/B                 Z/C    
 *******************************************************************************
      1 T   8 O     1.332337255452E-01  1.687914824258E-02 -1.139846082994E-01
      2 F   8 O    -1.332337255452E-01 -4.831208517574E-01  1.139846082994E-01
      3 T   8 O    -3.942516082334E-01  1.676115501823E-01 -1.192014268753E-01
      4 F   8 O     3.942516082334E-01 -3.323884498177E-01  1.192014268753E-01
      5 T   8 O     8.801260244620E-02  4.877221709343E-01 -4.568387554257E-01
      6 F   8 O    -8.801260244620E-02 -1.227782906570E-02  4.568387554257E-01
      7 T   8 O     3.866814457200E-02  2.216498553317E-01  4.500304962826E-01
      8 F   8 O    -3.866814457200E-02 -2.783501446683E-01 -4.500304962826E-01
      9 T   8 O    -4.780662736055E-01  2.803961166335E-01  2.346677412396E-01
     10 F   8 O     4.780662736055E-01 -2.196038833665E-01 -2.346677412396E-01
     11 T   8 O    -3.586425497085E-01  4.009272139802E-01 -2.601974952691E-01
     12 F   8 O     3.586425497085E-01 -9.907278601980E-02  2.601974952691E-01
     13 T   1 H     1.987068050361E-01 -2.431865169042E-02  1.774180342576E-02
     14 F   1 H    -1.987068050361E-01  4.756813483096E-01 -1.774180342576E-02
     15 T   1 H     3.024437752997E-01  7.387124270872E-02 -1.274634212657E-01
     16 F   1 H    -3.024437752997E-01 -4.261287572913E-01  1.274634212657E-01
     17 T   1 H    -2.009679065458E-01  1.216941008697E-01 -1.050175138706E-01
     18 F   1 H     2.009679065458E-01 -3.783058991303E-01  1.050175138706E-01
     19 T   1 H    -4.099165378130E-01  2.044783477251E-01  1.632004967296E-02
     20 F   1 H     4.099165378130E-01 -2.955216522749E-01 -1.632004967296E-02
     21 T   1 H     3.624397369928E-02  4.768577851326E-01  3.930387404383E-01
     22 F   1 H    -3.624397369928E-02 -2.314221486740E-02 -3.930387404383E-01
     23 T   1 H    -7.597561575393E-02  4.463940195295E-01 -3.926306047045E-01
     24 F   1 H     7.597561575393E-02 -5.360598047050E-02  3.926306047045E-01
     25 T   1 H     1.358613216698E-02  1.364662886959E-01  4.528802971171E-01
     26 F   1 H    -1.358613216698E-02 -3.635337113041E-01 -4.528802971171E-01
     27 T   1 H     2.149822484757E-01  2.391643025094E-01  3.755257321259E-01
     28 F   1 H    -2.149822484757E-01 -2.608356974906E-01 -3.755257321259E-01
     29 T   1 H    -2.727845134156E-01  2.621438036404E-01  3.270054480242E-01
     30 F   1 H     2.727845134156E-01 -2.378561963596E-01 -3.270054480242E-01
     31 T   1 H    -4.677951578700E-01  3.623411739227E-01  2.011891225179E-01
     32 F   1 H     4.677951578700E-01 -1.376588260773E-01 -2.011891225179E-01
     33 T   1 H     4.374850946866E-01  4.284130242104E-01 -3.333333333333E-01
     34 F   1 H    -4.374850946866E-01 -7.158697578960E-02  3.333333333333E-01
     35 T   1 H    -3.724441137490E-01  3.159785074414E-01 -2.453449101596E-01
     36 F   1 H     3.724441137490E-01 -1.840214925586E-01  2.453449101596E-01

 T = ATOM BELONGING TO THE ASYMMETRIC UNIT

 ****    2 SYMMOPS - TRANSLATORS IN FRACTIONAL UNITS
 **** MATRICES AND TRANSLATORS IN THE CRYSTALLOGRAPHIC REFERENCE FRAME
   V INV                    ROTATION MATRICES                   TRANSLATORS
   1   1  1.00  0.00  0.00  0.00  1.00  0.00  0.00  0.00  1.00  0.00  0.00  0.00
   2   2 -1.00  0.00  0.00  0.00  1.00  0.00  0.00  0.00 -1.00  0.00  0.50  0.00

 DIRECT LATTICE VECTORS CARTESIAN COMPONENTS (ANGSTROM)
          X                    Y                    Z
   0.430282570000E+01   0.263472086040E-15   0.000000000000E+00
   0.000000000000E+00   0.114130066700E+02   0.000000000000E+00
  -0.947813263981E+00   0.396283456511E-15   0.640201882204E+01


 CARTESIAN COORDINATES - PRIMITIVE CELL
 *******************************************************************************
 *      ATOM          X(ANGSTROM)         Y(ANGSTROM)         Z(ANGSTROM)
 *******************************************************************************
    1     8 O     6.813176220185E-01  1.926418314765E-01 -7.297316077556E-01
    2     8 O    -6.813176220185E-01 -5.513861503524E+00  7.297316077556E-01
    3     8 O    -1.583415258695E+00  1.912951740200E+00 -7.631297784697E-01
    4     8 O     1.583415258695E+00 -3.793551594800E+00  7.631297784697E-01
    5     8 O     8.117007196224E-01  5.566376389980E+00 -2.924690310873E+00
    6     8 O    -8.117007196224E-01 -1.401269450200E-01  2.924690310873E+00
    7     8 O    -2.601625873368E-01  2.529691277305E+00  2.881103707693E+00
    8     8 O     2.601625873368E-01 -3.176812057695E+00 -2.881103707693E+00
    9     8 O     2.023368653852E+00  3.200162749380E+00  1.502347296341E+00
   10     8 O    -2.023368653852E+00 -2.506340585620E+00 -1.502347296341E+00
   11     8 O    -1.296557742729E+00  4.575784967341E+00 -1.665789262160E+00
   12     8 O     1.296557742729E+00 -1.130718367659E+00  1.665789262160E+00
   13     1 H     8.381848308603E-01 -2.775489339482E-01  1.135833594686E-01
   14     1 H    -8.381848308603E-01  5.428954401052E+00 -1.135833594686E-01
   15     1 H     1.422174370513E+00  8.430929857558E-01 -8.160232220646E-01
   16     1 H    -1.422174370513E+00 -4.863410349244E+00  8.160232220646E-01
   17     1 H    -7.651928805636E-01  1.388895584926E+00 -6.723241004434E-01
   18     1 H     7.651928805636E-01 -4.317607750074E+00  6.723241004434E-01
   19     1 H    -1.779267773306E+00  2.333712746457E+00  1.044812651829E-01
   20     1 H     1.779267773306E+00 -3.372790588543E+00 -1.044812651829E-01
   21     1 H    -2.165758299424E-01  5.442381082360E+00  2.516241414077E+00
   22     1 H     2.165758299424E-01 -2.641222526402E-01 -2.516241414077E+00
   23     1 H     4.523066294440E-02  5.094697922338E+00 -2.513628521427E+00
   24     1 H    -4.523066294440E-02 -6.118054126617E-01  2.513628521427E+00
   25     1 H    -3.707871939515E-01  1.557490663116E+00  2.899348186275E+00
   26     1 H     3.707871939515E-01 -4.149012671884E+00 -2.899348186275E+00
   27     1 H     5.691028739100E-01  2.729583779766E+00  2.404122805230E+00
   28     1 H    -5.691028739100E-01 -2.976919555234E+00 -2.404122805230E+00
   29     1 H    -1.483684315918E+00  2.991848979447E+00  2.093495033160E+00
   30     1 H     1.483684315918E+00 -2.714654355553E+00 -2.093495033160E+00
   31     1 H     2.099294953490E+00  4.135402234795E+00  1.288016549149E+00
   32     1 H    -2.099294953490E+00 -1.571101100205E+00 -1.288016549149E+00
   33     1 H    -2.104465836555E+00  4.889480702828E+00 -2.134006274013E+00
   34     1 H     2.104465836555E+00 -8.170226321718E-01  2.134006274013E+00
   35     1 H    -1.370020944353E+00  3.606264813005E+00 -1.570702732733E+00
   36     1 H     1.370020944353E+00 -2.100238521995E+00  1.570702732733E+00

 *******************************************************************************
 STARTING BASIS SET HANDLING 
 *******************************************************************************

 Loading internal basis set: DEF2-MSVP           

 Please cite in your publication:
 Fully Optimized Contracted Gaussian Basis Sets for Atoms Li to Kr. A. Schäfer, 
 H. Horn and R. Ahlrichs; J. Chem. Phys. 97, 2571 (1992).                       
                                                                                
                    
 S. Grimme, J. G. Brandenburg, C. Bannwarth, and A. Hansen, J. Chem. Phys., 143,
  054107 (2015).                                                                
                                                                                
                    

 *******************************************************************************
 LOCAL ATOMIC FUNCTIONS BASIS SET
 *******************************************************************************
   ATOM   X(AU)   Y(AU)   Z(AU)  N. TYPE  EXPONENT  S COEF   P COEF   D/F/G COEF
 *******************************************************************************
   1 O    1.288   0.364  -1.379
                                  1 S  
                                         6.773E+03 1.727E-03 0.000E+00 0.000E+00
                                         1.017E+03 1.325E-02 0.000E+00 0.000E+00
                                         2.313E+02 6.603E-02 0.000E+00 0.000E+00
                                         6.501E+01 2.353E-01 0.000E+00 0.000E+00
                                         2.050E+01 5.498E-01 0.000E+00 0.000E+00
                                  2 S  
                                         6.716E+00 1.000E+00 0.000E+00 0.000E+00
                                  3 S  
                                         1.147E+00 1.000E+00 0.000E+00 0.000E+00
                                  4 S  
                                         3.342E-01 1.000E+00 0.000E+00 0.000E+00
                           5-     7 P  
                                         1.769E+01 0.000E+00 4.359E-02 0.000E+00
                                         3.854E+00 0.000E+00 2.318E-01 0.000E+00
                                         1.047E+00 0.000E+00 5.146E-01 0.000E+00
                           8-    10 P  
                                         2.759E-01 0.000E+00 1.000E+00 0.000E+00
                          11-    15 D  
                                         8.000E-01 0.000E+00 0.000E+00 1.000E+00
   2 O   -1.288 -10.420   1.379
   3 O   -2.992   3.615  -1.442
   4 O    2.992  -7.169   1.442
   5 O    1.534  10.519  -5.527
   6 O   -1.534  -0.265   5.527
   7 O   -0.492   4.780   5.444
   8 O    0.492  -6.003  -5.444
   9 O    3.824   6.047   2.839
  10 O   -3.824  -4.736  -2.839
  11 O   -2.450   8.647  -3.148
  12 O    2.450  -2.137   3.148
  13 H    1.584  -0.524   0.215
                                181 S  
                                         1.874E+01 1.968E-02 0.000E+00 0.000E+00
                                         2.826E+00 1.380E-01 0.000E+00 0.000E+00
                                         6.401E-01 4.783E-01 0.000E+00 0.000E+00
                                182 S  
                                         1.756E-01 1.000E+00 0.000E+00 0.000E+00
  14 H   -1.584  10.259  -0.215
  15 H    2.688   1.593  -1.542
  16 H   -2.688  -9.191   1.542
  17 H   -1.446   2.625  -1.271
  18 H    1.446  -8.159   1.271
  19 H   -3.362   4.410   0.197
  20 H    3.362  -6.374  -0.197
  21 H   -0.409  10.285   4.755
  22 H    0.409  -0.499  -4.755
  23 H    0.085   9.628  -4.750
  24 H   -0.085  -1.156   4.750
  25 H   -0.701   2.943   5.479
  26 H    0.701  -7.840  -5.479
  27 H    1.075   5.158   4.543
  28 H   -1.075  -5.626  -4.543
  29 H   -2.804   5.654   3.956
  30 H    2.804  -5.130  -3.956
  31 H    3.967   7.815   2.434
  32 H   -3.967  -2.969  -2.434
  33 H   -3.977   9.240  -4.033
  34 H    3.977  -1.544   4.033
  35 H   -2.589   6.815  -2.968
  36 H    2.589  -3.969   2.968

 *******************************************************************************
 FINISHED BASIS SET HANDLING 
 *******************************************************************************

 INFORMATION **** SET_MPP **** PCRYSTAL CALCULATION
 INFORMATION **** READM2 **** NEW DEFAULT: FOCK/KS MATRIX MIXING SET TO 30 %
 INFORMATION **** READM2 **** NEW DEFAULT: FULL DIRECT SCF MODE
 INFORMATION **** READM2 **** NEW DEFAULT: COULOMB BIPOLAR BUFFER SET TO 32 Mb
 INFORMATION **** READM2 **** NEW DEFAULT: EXCHANGE BIPOLAR BUFFER SET TO 32 Mb

 *******************************************************************************
 NEW DEFAULT: DFT INTEGRATION GRID INCREASED TO XLGRID
 NEW DEFAULT: DIIS ACCELERATOR ACTIVE
 USE KEYWORD NODIIS TO TURN IT OFF
 *******************************************************************************

 INFORMATION **** RDDFTP **** HSE-3c calculation
 INFORMATION **** RDDFTP **** HSE screened hybrid functional combined with D3 and gCP

PLEASE CITE:
(1) HSE-3c Reference
 J. G. Brandenburg, E. Caldeweyer, and S. Grimme, 
 Phys. Chem. Chem. Phys. 18, 15519 (2016)
(2) DFT-D3 Reference
 S. Grimme, J. Antony, S. Ehrlich,
 and H. Krieg, J. Chem. Phys. 132, 154104 (2010)
(3) gCP Reference
 H. Kruse and S. Grimme J. Chem. Phys, 136, 154101 (2012)
 J. G. Brandenburg, M. Alessio, B. Civalleri, M. F. Peintinger
 T. Bredow, and S. Grimme, J. Phys. Chem. A, 117, 9282 (2013) 

 WARNING **** RDDFTP **** HSE3c-HJS ACTIVE
 RANGE SEPARATION - OMEGA:   0.110000000000000     
 WARNING **** RDDFTP **** HSE-3c has to be combined with def2-mSVP basis set
 WARNING **** RDDFTP **** Note: Harmonic frequencies are scaled by 0.95
 WARNING **** RDDFTP **** as recommended in original publication
 INFORMATION **** BIPOSIZE **** COULOMB BIPOLAR BUFFER SET TO    60000000
 INFORMATION **** EXCHSIZE **** EXCHANGE BIPOLAR BUFFER SIZE SET TO    40000000
 *******************************************************************************
 N. OF ATOMS PER CELL        36  COULOMB OVERLAP TOL         (T1) 10**   -6
 NUMBER OF SHELLS           132  COULOMB PENETRATION TOL     (T2) 10**   -6
 NUMBER OF AO               228  EXCHANGE OVERLAP TOL        (T3) 10**   -6
 N. OF ELECTRONS PER CELL   120  EXCHANGE PSEUDO OVP (F(G))  (T4) 10**   -6
 CORE ELECTRONS PER CELL     24  EXCHANGE PSEUDO OVP (P(G))  (T5) 10**  -12
 N. OF SYMMETRY OPERATORS     2  POLE ORDER IN MONO ZONE                  4
 *******************************************************************************
 TYPE OF CALCULATION :  RESTRICTED CLOSED SHELL
 KOHN-SHAM HAMILTONIAN

 (EXCHANGE)[CORRELATION] FUNCTIONAL:(HSE-3c)[PBEh-3c]

 RANGE-SEPARATED HYBRID FUNCTIONAL 
 OMEGA (SHORT-RANGE)[LONG-RANGE]:(    0.1100)[    0.0000]

 HYBRID EXCHANGE - PERCENTAGE OF FOCK EXCHANGE    42.0000

 CAPPA:IS1  2;IS2  1;IS3  2; K PTS MONK NET   4; SYMMOPS:K SPACE   4;G SPACE   2

 *******************************************************************************
 MAX NUMBER OF SCF CYCLES      50  CONVERGENCE ON DELTAP        10**-16
 WEIGHT OF F(I) IN F(I+1)      30% CONVERGENCE ON ENERGY        10**- 6
 S(K) EIGENV. THRESHOLD  10*10.**-4
 SHRINK. FACT.(MONKH.)    2  1  2  NUMBER OF K POINTS IN THE IBZ      4
 SHRINKING FACTOR(GILAT NET)    2  NUMBER OF K POINTS(GILAT NET)      4
 *******************************************************************************
 *** K POINTS COORDINATES (OBLIQUE COORDINATES IN UNITS OF IS =  2)
   1-R(  0  0  0)   2-R(  1  0  0)   3-R(  0  0  1)   4-R(  1  0  1)

 DIRECT LATTICE VECTORS COMPON. (A.U.)     RECIP. LATTICE VECTORS COMPON. (A.U.) 
        X            Y            Z              X            Y            Z
    8.1311622    0.0000000    0.0000000      0.7727291    0.0000000    0.1144019
    0.0000000   21.5674570    0.0000000     -0.0000000    0.2913271   -0.0000000
   -1.7911075    0.0000000   12.0980623      0.0000000    0.0000000    0.5193547

 DISK SPACE FOR EIGENVECTORS (FTN 10)      207936 REALS

 SYMMETRY ADAPTION OF THE BLOCH FUNCTIONS ENABLED
 TTTTTTTTTTTTTTTTTTTTTTTTTTTTTT gordsh1     TELAPSE        0.35 TCPU        0.05

 MATRIX SIZE: P(G)  133968, F(G)   23692, P(G) IRR   34261, F(G) IRR   11995
 MAX G-VECTOR INDEX FOR 1- AND 2-ELECTRON INTEGRALS  75

 TTTTTTTTTTTTTTTTTTTTTTTTTTTTTT INPUT       TELAPSE        0.35 TCPU        0.06

 NEIGHBORS OF THE NON-EQUIVALENT ATOMS

 N = NUMBER OF NEIGHBORS AT DISTANCE R
    ATOM  N     R/ANG      R/AU   NEIGHBORS (ATOM LABELS AND CELL INDICES)
   1 O    1     0.9782     1.8485   13 H    0 0 0
   1 O    1     0.9896     1.8702   15 H    0 0 0
   1 O    1     1.8780     3.5488   17 H    0 0 0
   1 O    1     1.9016     3.5936   22 H    0 0 0
   1 O    1     2.3957     4.5273   32 H    1 0 0
   1 O    1     2.6673     5.0404    3 O    1 0 0

   3 O    1     0.9759     1.8442   17 H    0 0 0
   3 O    1     0.9839     1.8594   19 H    0 0 0
   3 O    1     1.6823     3.1791   15 H   -1 0 0
   3 O    1     1.8881     3.5680   35 H    0 0 0
   3 O    1     2.6673     5.0404    1 O   -1 0 0
   3 O    1     2.6970     5.0966    9 O   -1 0 0

   5 O    1     0.9724     1.8375   21 H    0 0-1
   5 O    1     0.9894     1.8697   23 H    0 0 0
   5 O    1     1.7338     3.2765   33 H    1 0 0
   5 O    1     1.7541     3.3148   26 H    0 1 0
   5 O    1     2.6478     5.0036   11 O    0 0 0
   5 O    1     2.7170     5.1344   11 O    1 0 0

   7 O    1     0.9773     1.8469   27 H    0 0 0
   7 O    1     0.9786     1.8494   25 H    0 0 0
   7 O    1     1.5267     2.8851   29 H    0 0 0
   7 O    1     2.5354     4.7911    9 O   -1 0 0
   7 O    1     2.7265     5.1524    6 O    0 0 0
   7 O    1     2.7505     5.1976    9 O    0 0 0

   9 O    1     0.9625     1.8188   31 H    0 0 0
   9 O    1     1.0130     1.9142   29 H    1 0 0
   9 O    1     1.7190     3.2484   19 H    1 0 0
   9 O    1     1.7747     3.3537   27 H    0 0 0
   9 O    1     2.5354     4.7911    7 O    1 0 0
   9 O    1     2.6970     5.0966    3 O    1 0 0

  11 O    1     0.9769     1.8461   35 H    0 0 0
  11 O    1     0.9851     1.8615   33 H    0 0 0
  11 O    1     1.6699     3.1556   23 H    0 0 0
  11 O    1     1.8296     3.4574   14 H    0 0 0
  11 O    1     2.6478     5.0036    5 O    0 0 0
  11 O    1     2.7170     5.1344    5 O   -1 0 0

  13 H    1     0.9782     1.8485    1 O    0 0 0
  13 H    1     1.5688     2.9646   15 H    0 0 0
  13 H    1     1.8296     3.4574   12 O    0 0 0
  13 H    1     2.3456     4.4326   32 H    1 0 0
  13 H    1     2.3934     4.5228   36 H    0 0 0
  13 H    1     2.4424     4.6155   17 H    0 0 0

  15 H    1     0.9896     1.8702    1 O    0 0 0
  15 H    1     1.5688     2.9646   13 H    0 0 0
  15 H    1     1.6823     3.1791    3 O    1 0 0
  15 H    1     2.0694     3.9106   19 H    1 0 0
  15 H    1     2.1895     4.1375   17 H    1 0 0
  15 H    1     2.2590     4.2689   17 H    0 0 0

  17 H    1     0.9759     1.8442    3 O    0 0 0
  17 H    1     1.5889     3.0025   19 H    0 0 0
  17 H    1     1.8780     3.5488    1 O    0 0 0
  17 H    1     2.1895     4.1375   15 H   -1 0 0
  17 H    1     2.2590     4.2689   15 H    0 0 0
  17 H    1     2.4424     4.6155   13 H    0 0 0

  19 H    1     0.9839     1.8594    3 O    0 0 0
  19 H    1     1.5889     3.0025   17 H    0 0 0
  19 H    1     1.7190     3.2484    9 O   -1 0 0
  19 H    1     2.0694     3.9106   15 H   -1 0 0
  19 H    1     2.1158     3.9983   29 H    0 0 0
  19 H    1     2.1432     4.0500   35 H    0 0 0

  21 H    1     0.9724     1.8375    5 O    0 0 1
  21 H    1     1.5730     2.9725   23 H    0 0 1
  21 H    1     1.9016     3.5936    2 O    0 1 0
  21 H    1     2.1027     3.9735   26 H    0 1 1
  21 H    1     2.3509     4.4426   33 H    1 0 1
  21 H    1     2.3601     4.4600   16 H    0 1 0

  23 H    1     0.9894     1.8697    5 O    0 0 0
  23 H    1     1.5730     2.9725   21 H    0 0-1
  23 H    1     1.6699     3.1556   11 O    0 0 0
  23 H    1     2.1926     4.1434   33 H    0 0 0
  23 H    1     2.1959     4.1497   33 H    1 0 0
  23 H    1     2.2272     4.2089   26 H    0 1 0

  25 H    1     0.9786     1.8494    7 O    0 0 0
  25 H    1     1.5819     2.9894   27 H    0 0 0
  25 H    1     1.7541     3.3148    6 O    0 0 0
  25 H    1     1.9863     3.7535   29 H    0 0 0
  25 H    1     2.1027     3.9735   22 H    0 0 1
  25 H    1     2.2272     4.2089   24 H    0 0 0

  27 H    1     0.9773     1.8469    7 O    0 0 0
  27 H    1     1.5819     2.9894   25 H    0 0 0
  27 H    1     1.7747     3.3537    9 O    0 0 0
  27 H    1     2.0927     3.9545   29 H    0 0 0
  27 H    1     2.2865     4.3208   29 H    1 0 0
  27 H    1     2.3587     4.4573   31 H    0 0 0

  29 H    1     1.0130     1.9142    9 O   -1 0 0
  29 H    1     1.5267     2.8851    7 O    0 0 0
  29 H    1     1.5731     2.9728   31 H   -1 0 0
  29 H    1     1.9863     3.7535   25 H    0 0 0
  29 H    1     2.0927     3.9545   27 H    0 0 0
  29 H    1     2.1158     3.9983   19 H    0 0 0

  31 H    1     0.9625     1.8188    9 O    0 0 0
  31 H    1     1.5731     2.9728   29 H    1 0 0
  31 H    1     2.1970     4.1517   19 H    1 0 0
  31 H    1     2.3456     4.4326   14 H    1 0 0
  31 H    1     2.3587     4.4573   27 H    0 0 0
  31 H    1     2.3957     4.5273    2 O    1 1 0

  33 H    1     0.9851     1.8615   11 O    0 0 0
  33 H    1     1.5822     2.9899   35 H    0 0 0
  33 H    1     1.7338     3.2765    5 O   -1 0 0
  33 H    1     2.1926     4.1434   23 H    0 0 0
  33 H    1     2.1959     4.1497   23 H   -1 0 0
  33 H    1     2.3509     4.4426   21 H   -1 0-1

  35 H    1     0.9769     1.8461   11 O    0 0 0
  35 H    1     1.5822     2.9899   33 H    0 0 0
  35 H    1     1.8881     3.5680    3 O    0 0 0
  35 H    1     2.1432     4.0500   19 H    0 0 0
  35 H    1     2.2600     4.2707   23 H    0 0 0
  35 H    1     2.3934     4.5228   14 H    0 0 0


 SYMMETRY ALLOWED INTERNAL DEGREE(S) OF FREEDOM:  53
 TTTTTTTTTTTTTTTTTTTTTTTTTTTTTT SYMM        TELAPSE        6.41 TCPU        6.10
 TTTTTTTTTTTTTTTTTTTTTTTTTTTTTT INT_SCREEN  TELAPSE        6.42 TCPU        6.11

 DFT PARAMETERS

     ATOM       ELECTRONS   NET CHARGE   R(ANGSTROM)
   1   8  O       8.0000      0.0000     0.74000000
  13   1  H       1.0000      0.0000     1.11000000

 SIZE OF GRID=     405171
 TTTTTTTTTTTTTTTTTTTTTTTTTTTTTT MAKE_GRID2  TELAPSE       13.17 TCPU       12.86
 BECKE WEIGHT FUNCTION
 RADSAFE =     2.00
 TOLERANCES - DENSITY:10**- 6; POTENTIAL:10**- 9; GRID WGT:10**-14

 RADIAL INTEGRATION  - INTERVALS (POINTS,UPPER LIMIT):            1( 75,  4.0*R)

 ANGULAR INTEGRATION - INTERVALS (ACCURACY LEVEL [N. POINTS] UPPER LIMIT):
  1(  4[  86]   0.2)  2(  8[ 194]   0.5)  3( 12[ 350]   0.9)  4( 16[ 974]   3.5)
  5( 12[ 350]9999.0)
 TTTTTTTTTTTTTTTTTTTTTTTTTTTTTT INT_CALC    TELAPSE       13.20 TCPU       12.89
 EEEEEEEEEE INT_CALC TERMINATION  DATE 25 03 2019 TIME 17:52:53.9

 *******************************************************************************
 !drive by JGB                                                                   
 CRYSTAL - SCF - TYPE OF CALCULATION :  RESTRICTED CLOSED SHELL
 *******************************************************************************

 CAPPA:IS1  2;IS2  1;IS3  2; K PTS MONK NET   4; SYMMOPS:K SPACE   4;G SPACE   2

 TTTTTTTTTTTTTTTTTTTTTTTTTTTTTT SDIK        TELAPSE       13.35 TCPU       13.02

 AAAAAAAAAAAAAAAAAAAAAAAAAAAAAAAAAAAAAAAAAAAAAAAAAAAAAAAAAAAAAAAAAAAAAAAAAAAAAAA
         ATOMIC WAVEFUNCTION(S)


 NUCLEAR CHARGE  8.0  SYMMETRY SPECIES            S    P
 N. ELECTRONS    8.0  NUMBER OF PRIMITIVE GTOS    8    4
                      NUMBER OF CONTRACTED GTOS   4    2
                      NUMBER OF CLOSED SHELLS     2    0
                      OPEN SHELL OCCUPATION       0    4

  ZNUC SCFIT  TOTAL HF ENERGY   KINETIC ENERGY   VIRIAL THEOREM ACCURACY
   8.0  12   -7.477373220E+01  7.477365593E+01 -2.000001020E+00  3.8E-06

 NUCLEAR CHARGE  1.0  SYMMETRY SPECIES            S
 N. ELECTRONS    1.0  NUMBER OF PRIMITIVE GTOS    4
                      NUMBER OF CONTRACTED GTOS   2
                      NUMBER OF CLOSED SHELLS     0
                      OPEN SHELL OCCUPATION       1

  ZNUC SCFIT  TOTAL HF ENERGY   KINETIC ENERGY   VIRIAL THEOREM ACCURACY
   1.0   1   -4.977266687E-01  5.190767460E-01 -1.958869132E+00  1.8E-16

 AAAAAAAAAAAAAAAAAAAAAAAAAAAAAAAAAAAAAAAAAAAAAAAAAAAAAAAAAAAAAAAAAAAAAAAAAAAAAAA

 CHARGE NORMALIZATION FACTOR   1.00000000
 TOTAL ATOMIC CHARGES:
   8.0000000   8.0000000   8.0000000   8.0000000   8.0000000   8.0000000
   8.0000000   8.0000000   8.0000000   8.0000000   8.0000000   8.0000000
   1.0000000   1.0000000   1.0000000   1.0000000   1.0000000   1.0000000
   1.0000000   1.0000000   1.0000000   1.0000000   1.0000000   1.0000000
   1.0000000   1.0000000   1.0000000   1.0000000   1.0000000   1.0000000
   1.0000000   1.0000000   1.0000000   1.0000000   1.0000000   1.0000000
 TTTTTTTTTTTTTTTTTTTTTTTTTTTTTT MOQGAD      TELAPSE       15.12 TCPU       14.80
 TTTTTTTTTTTTTTTTTTTTTTTTTTTTTT SHELLXN     TELAPSE       24.40 TCPU       24.07
 TTTTTTTTTTTTTTTTTTTTTTTTTTTTTT MONMO3      TELAPSE       25.57 TCPU       25.24
 NUMERICALLY INTEGRATED DENSITY    120.0000014621
 TTTTTTTTTTTTTTTTTTTTTTTTTTTTTT NUMDFT      TELAPSE       26.21 TCPU       25.87
 CYC   0 ETOT(AU) -9.158523348853E+02 DETOT -9.16E+02 tst  0.00E+00 PX  1.00E+00
 TTTTTTTTTTTTTTTTTTTTTTTTTTTTTT DIIS        TELAPSE       26.21 TCPU       25.88
 TTTTTTTTTTTTTTTTTTTTTTTTTTTTTT FDIK        TELAPSE       26.28 TCPU       25.92
 INSULATING STATE
 TOP OF VALENCE BANDS -    BAND     60; K    2; EIG -4.1495279E-01 AU
 TOP OF VALENCE BANDS -    BAND     60; K    1; EIG -4.1970677E-01 AU
 BOTTOM OF VIRTUAL BANDS - BAND     61; K    1; EIG -8.3184992E-02 AU
 INDIRECT ENERGY BAND GAP:   9.0279 eV
 TTTTTTTTTTTTTTTTTTTTTTTTTTTTTT PDIG        TELAPSE       26.28 TCPU       25.92
 CHARGE NORMALIZATION FACTOR   1.00000000
 TOTAL ATOMIC CHARGES:
   9.0862469   9.0862469   9.0671697   9.0671697   9.0616221   9.0616221
   9.0893968   9.0893968   9.0566849   9.0566849   9.0623759   9.0623759
   0.4637038   0.4637038   0.4682077   0.4682077   0.4669983   0.4669983
   0.4687209   0.4687209   0.4598000   0.4598000   0.4607023   0.4607023
   0.4680912   0.4680912   0.4633229   0.4633229   0.4642671   0.4642671
   0.4688314   0.4688314   0.4600942   0.4600942   0.4637639   0.4637639
 TTTTTTTTTTTTTTTTTTTTTTTTTTTTTT MOQGAD      TELAPSE       26.29 TCPU       25.93
 TTTTTTTTTTTTTTTTTTTTTTTTTTTTTT SHELLXN     TELAPSE       35.78 TCPU       35.42
 TTTTTTTTTTTTTTTTTTTTTTTTTTTTTT MONMO3      TELAPSE       36.98 TCPU       36.61
 NUMERICALLY INTEGRATED DENSITY    119.9999996676
 TTTTTTTTTTTTTTTTTTTTTTTTTTTTTT NUMDFT      TELAPSE       38.41 TCPU       38.05
 CYC   1 ETOT(AU) -9.152106624172E+02 DETOT  6.42E-01 tst  0.00E+00 PX  1.00E+00
 TTTTTTTTTTTTTTTTTTTTTTTTTTTTTT DIIS        TELAPSE       38.43 TCPU       38.07
 DIIS TEST: 0.12862E+01 AT SCF   CYCLE   1 - MIX   30 %
 TTTTTTTTTTTTTTTTTTTTTTTTTTTTTT FDIK        TELAPSE       38.44 TCPU       38.07
 INSULATING STATE
 TOP OF VALENCE BANDS -    BAND     60; K    2; EIG -3.0536130E-01 AU
 TOP OF VALENCE BANDS -    BAND     60; K    1; EIG -3.1133261E-01 AU
 BOTTOM OF VIRTUAL BANDS - BAND     61; K    1; EIG -2.5850228E-02 AU
 INDIRECT ENERGY BAND GAP:   7.6059 eV
 TTTTTTTTTTTTTTTTTTTTTTTTTTTTTT PDIG        TELAPSE       38.44 TCPU       38.07
 CHARGE NORMALIZATION FACTOR   1.00000000
 TOTAL ATOMIC CHARGES:
   8.8589927   8.8589927   8.8414298   8.8414298   8.8513091   8.8513091
   8.8543918   8.8543918   8.8360386   8.8360386   8.8635798   8.8635798
   0.5802147   0.5802147   0.5721637   0.5721637   0.5827452   0.5827452
   0.5795138   0.5795138   0.5752507   0.5752507   0.5556978   0.5556978
   0.5835392   0.5835392   0.5777704   0.5777704   0.5606944   0.5606944
   0.6056397   0.6056397   0.5588444   0.5588444   0.5621841   0.5621841
 TTTTTTTTTTTTTTTTTTTTTTTTTTTTTT MOQGAD      TELAPSE       38.44 TCPU       38.08
 TTTTTTTTTTTTTTTTTTTTTTTTTTTTTT SHELLXN     TELAPSE       48.01 TCPU       47.64
 TTTTTTTTTTTTTTTTTTTTTTTTTTTTTT MONMO3      TELAPSE       49.21 TCPU       48.84
 NUMERICALLY INTEGRATED DENSITY    120.0000040315
 TTTTTTTTTTTTTTTTTTTTTTTTTTTTTT NUMDFT      TELAPSE       50.65 TCPU       50.28
 CYC   2 ETOT(AU) -9.154724615839E+02 DETOT -2.62E-01 tst  2.33E-03 PX  1.31E-01
 TTTTTTTTTTTTTTTTTTTTTTTTTTTTTT DIIS        TELAPSE       50.66 TCPU       50.29
 DIIS TEST: 0.27743E+00 AT SCF   CYCLE   2 - DIIS ACTIVE - HISTORY:     2 CYCLES
 TTTTTTTTTTTTTTTTTTTTTTTTTTTTTT FDIK        TELAPSE       50.67 TCPU       50.29
 INSULATING STATE
 TOP OF VALENCE BANDS -    BAND     60; K    2; EIG -3.5288175E-01 AU
 TOP OF VALENCE BANDS -    BAND     60; K    1; EIG -3.5823317E-01 AU
 BOTTOM OF VIRTUAL BANDS - BAND     61; K    1; EIG -2.7703965E-02 AU
 INDIRECT ENERGY BAND GAP:   8.8485 eV
 TTTTTTTTTTTTTTTTTTTTTTTTTTTTTT PDIG        TELAPSE       50.67 TCPU       50.30
 CHARGE NORMALIZATION FACTOR   1.00000000
 TOTAL ATOMIC CHARGES:
   8.9443676   8.9443676   8.9180720   8.9180720   8.9234748   8.9234748
   8.9277772   8.9277772   8.9071573   8.9071573   8.9327922   8.9327922
   0.5404504   0.5404504   0.5316457   0.5316457   0.5442824   0.5442824
   0.5411186   0.5411186   0.5401514   0.5401514   0.5196444   0.5196444
   0.5453619   0.5453619   0.5391626   0.5391626   0.5223528   0.5223528
   0.5720058   0.5720058   0.5244937   0.5244937   0.5256892   0.5256892
 TTTTTTTTTTTTTTTTTTTTTTTTTTTTTT MOQGAD      TELAPSE       50.67 TCPU       50.30
 TTTTTTTTTTTTTTTTTTTTTTTTTTTTTT SHELLXN     TELAPSE       60.23 TCPU       59.86
 TTTTTTTTTTTTTTTTTTTTTTTTTTTTTT MONMO3      TELAPSE       61.43 TCPU       61.06
 NUMERICALLY INTEGRATED DENSITY    120.0000026469
 TTTTTTTTTTTTTTTTTTTTTTTTTTTTTT NUMDFT      TELAPSE       62.84 TCPU       62.47
 CYC   3 ETOT(AU) -9.155454096270E+02 DETOT -7.29E-02 tst  2.27E-04 PX  4.72E-02
 TTTTTTTTTTTTTTTTTTTTTTTTTTTTTT DIIS        TELAPSE       62.85 TCPU       62.47
 DIIS TEST: 0.14521E-02 AT SCF   CYCLE   3 - DIIS ACTIVE - HISTORY:     3 CYCLES
 TTTTTTTTTTTTTTTTTTTTTTTTTTTTTT FDIK        TELAPSE       62.85 TCPU       62.48
 INSULATING STATE
 TOP OF VALENCE BANDS -    BAND     60; K    2; EIG -3.5170733E-01 AU
 TOP OF VALENCE BANDS -    BAND     60; K    1; EIG -3.5702338E-01 AU
 BOTTOM OF VIRTUAL BANDS - BAND     61; K    1; EIG -2.4776811E-02 AU
 INDIRECT ENERGY BAND GAP:   8.8962 eV
 TTTTTTTTTTTTTTTTTTTTTTTTTTTTTT PDIG        TELAPSE       62.86 TCPU       62.48
 CHARGE NORMALIZATION FACTOR   1.00000000
 TOTAL ATOMIC CHARGES:
   8.9342134   8.9342134   8.9154284   8.9154284   8.9220702   8.9220702
   8.9263838   8.9263838   8.9064161   8.9064161   8.9325557   8.9325557
   0.5434634   0.5434634   0.5351016   0.5351016   0.5464719   0.5464719
   0.5422123   0.5422123   0.5412165   0.5412165   0.5205265   0.5205265
   0.5459978   0.5459978   0.5400860   0.5400860   0.5227934   0.5227934
   0.5726894   0.5726894   0.5250875   0.5250875   0.5272860   0.5272860
 TTTTTTTTTTTTTTTTTTTTTTTTTTTTTT MOQGAD      TELAPSE       62.86 TCPU       62.48
 TTTTTTTTTTTTTTTTTTTTTTTTTTTTTT SHELLXN     TELAPSE       72.42 TCPU       72.04
 TTTTTTTTTTTTTTTTTTTTTTTTTTTTTT MONMO3      TELAPSE       73.62 TCPU       73.24
 NUMERICALLY INTEGRATED DENSITY    120.0000026873
 TTTTTTTTTTTTTTTTTTTTTTTTTTTTTT NUMDFT      TELAPSE       75.03 TCPU       74.65
 CYC   4 ETOT(AU) -9.155456557835E+02 DETOT -2.46E-04 tst  1.19E-06 PX  4.30E-03
 TTTTTTTTTTTTTTTTTTTTTTTTTTTTTT DIIS        TELAPSE       75.04 TCPU       74.66
 DIIS TEST: 0.15792E-03 AT SCF   CYCLE   4 - DIIS ACTIVE - HISTORY:     4 CYCLES
 TTTTTTTTTTTTTTTTTTTTTTTTTTTTTT FDIK        TELAPSE       75.17 TCPU       74.67
 INSULATING STATE
 TOP OF VALENCE BANDS -    BAND     60; K    2; EIG -3.5109365E-01 AU
 TOP OF VALENCE BANDS -    BAND     60; K    1; EIG -3.5642793E-01 AU
 BOTTOM OF VIRTUAL BANDS - BAND     61; K    1; EIG -2.4597750E-02 AU
 INDIRECT ENERGY BAND GAP:   8.8844 eV
 TTTTTTTTTTTTTTTTTTTTTTTTTTTTTT PDIG        TELAPSE       75.17 TCPU       74.67
 CHARGE NORMALIZATION FACTOR   1.00000000
 TOTAL ATOMIC CHARGES:
   8.9404558   8.9404558   8.9151529   8.9151529   8.9209881   8.9209881
   8.9256651   8.9256651   8.9043972   8.9043972   8.9298303   8.9298303
   0.5418806   0.5418806   0.5333366   0.5333366   0.5459383   0.5459383
   0.5424142   0.5424142   0.5413755   0.5413755   0.5210622   0.5210622
   0.5464165   0.5464165   0.5404796   0.5404796   0.5233827   0.5233827
   0.5734318   0.5734318   0.5258977   0.5258977   0.5278950   0.5278950
 TTTTTTTTTTTTTTTTTTTTTTTTTTTTTT MOQGAD      TELAPSE       75.18 TCPU       74.67
 TTTTTTTTTTTTTTTTTTTTTTTTTTTTTT SHELLXN     TELAPSE       84.74 TCPU       84.22
 TTTTTTTTTTTTTTTTTTTTTTTTTTTTTT MONMO3      TELAPSE       85.94 TCPU       85.43
 NUMERICALLY INTEGRATED DENSITY    120.0000027216
 TTTTTTTTTTTTTTTTTTTTTTTTTTTTTT NUMDFT      TELAPSE       87.35 TCPU       86.84
 CYC   5 ETOT(AU) -9.155456711823E+02 DETOT -1.54E-05 tst  5.36E-07 PX  2.82E-03
 TTTTTTTTTTTTTTTTTTTTTTTTTTTTTT DIIS        TELAPSE       87.37 TCPU       86.84
 DIIS TEST: 0.82561E-04 AT SCF   CYCLE   5 - DIIS ACTIVE - HISTORY:     5 CYCLES
 TTTTTTTTTTTTTTTTTTTTTTTTTTTTTT FDIK        TELAPSE       87.39 TCPU       86.85
 INSULATING STATE
 TOP OF VALENCE BANDS -    BAND     60; K    2; EIG -3.5128626E-01 AU
 TOP OF VALENCE BANDS -    BAND     60; K    1; EIG -3.5661325E-01 AU
 BOTTOM OF VIRTUAL BANDS - BAND     61; K    1; EIG -2.4540643E-02 AU
 INDIRECT ENERGY BAND GAP:   8.8912 eV
 TTTTTTTTTTTTTTTTTTTTTTTTTTTTTT PDIG        TELAPSE       87.40 TCPU       86.85
 CHARGE NORMALIZATION FACTOR   1.00000000
 TOTAL ATOMIC CHARGES:
   8.9372261   8.9372261   8.9154447   8.9154447   8.9214232   8.9214232
   8.9258314   8.9258314   8.9053197   8.9053197   8.9312848   8.9312848
   0.5427391   0.5427391   0.5341899   0.5341899   0.5461542   0.5461542
   0.5423490   0.5423490   0.5413829   0.5413829   0.5208129   0.5208129
   0.5462581   0.5462581   0.5403015   0.5403015   0.5231016   0.5231016
   0.5732620   0.5732620   0.5254611   0.5254611   0.5274577   0.5274577
 TTTTTTTTTTTTTTTTTTTTTTTTTTTTTT MOQGAD      TELAPSE       87.40 TCPU       86.85
 TTTTTTTTTTTTTTTTTTTTTTTTTTTTTT SHELLXN     TELAPSE       96.96 TCPU       96.41
 TTTTTTTTTTTTTTTTTTTTTTTTTTTTTT MONMO3      TELAPSE       98.16 TCPU       97.61
 NUMERICALLY INTEGRATED DENSITY    120.0000027128
 TTTTTTTTTTTTTTTTTTTTTTTTTTTTTT NUMDFT      TELAPSE       99.56 TCPU       99.01
 CYC   6 ETOT(AU) -9.155456902703E+02 DETOT -1.91E-05 tst  1.27E-07 PX  1.45E-03
 TTTTTTTTTTTTTTTTTTTTTTTTTTTTTT DIIS        TELAPSE       99.56 TCPU       99.01
 DIIS TEST: 0.30516E-05 AT SCF   CYCLE   6 - DIIS ACTIVE - HISTORY:     6 CYCLES
 TTTTTTTTTTTTTTTTTTTTTTTTTTTTTT FDIK        TELAPSE       99.58 TCPU       99.02
 INSULATING STATE
 TOP OF VALENCE BANDS -    BAND     60; K    2; EIG -3.5130724E-01 AU
 TOP OF VALENCE BANDS -    BAND     60; K    1; EIG -3.5663499E-01 AU
 BOTTOM OF VIRTUAL BANDS - BAND     61; K    1; EIG -2.4521782E-02 AU
 INDIRECT ENERGY BAND GAP:   8.8923 eV
 TTTTTTTTTTTTTTTTTTTTTTTTTTTTTT PDIG        TELAPSE       99.58 TCPU       99.02
 CHARGE NORMALIZATION FACTOR   1.00000000
 TOTAL ATOMIC CHARGES:
   8.9375760   8.9375760   8.9150927   8.9150927   8.9213989   8.9213989
   8.9259282   8.9259282   8.9051700   8.9051700   8.9310275   8.9310275
   0.5426451   0.5426451   0.5341458   0.5341458   0.5462479   0.5462479
   0.5424476   0.5424476   0.5413856   0.5413856   0.5208438   0.5208438
   0.5462427   0.5462427   0.5402966   0.5402966   0.5231227   0.5231227
   0.5733078   0.5733078   0.5255419   0.5255419   0.5275794   0.5275794
 TTTTTTTTTTTTTTTTTTTTTTTTTTTTTT MOQGAD      TELAPSE       99.58 TCPU       99.02
 TTTTTTTTTTTTTTTTTTTTTTTTTTTTTT SHELLXN     TELAPSE      109.14 TCPU      108.57
 TTTTTTTTTTTTTTTTTTTTTTTTTTTTTT MONMO3      TELAPSE      110.35 TCPU      109.78
 NUMERICALLY INTEGRATED DENSITY    120.0000027125
 TTTTTTTTTTTTTTTTTTTTTTTTTTTTTT NUMDFT      TELAPSE      111.77 TCPU      111.21
 CYC   7 ETOT(AU) -9.155456905842E+02 DETOT -3.14E-07 tst  2.56E-09 PX  1.58E-04
 TTTTTTTTTTTTTTTTTTTTTTTTTTTTTT DIIS        TELAPSE      111.78 TCPU      111.21
 DIIS TEST: 0.28074E-06 AT SCF   CYCLE   7 - DIIS ACTIVE - HISTORY:     7 CYCLES
 TTTTTTTTTTTTTTTTTTTTTTTTTTTTTT FDIK        TELAPSE      111.97 TCPU      111.22
 INSULATING STATE
 TOP OF VALENCE BANDS -    BAND     60; K    2; EIG -3.5123582E-01 AU
 TOP OF VALENCE BANDS -    BAND     60; K    1; EIG -3.5656397E-01 AU
 BOTTOM OF VIRTUAL BANDS - BAND     61; K    1; EIG -2.4519989E-02 AU
 INDIRECT ENERGY BAND GAP:   8.8904 eV
 TTTTTTTTTTTTTTTTTTTTTTTTTTTTTT PDIG        TELAPSE      111.97 TCPU      111.22
 CHARGE NORMALIZATION FACTOR   1.00000000
 TOTAL ATOMIC CHARGES:
   8.9375025   8.9375025   8.9153587   8.9153587   8.9213178   8.9213178
   8.9257537   8.9257537   8.9051601   8.9051601   8.9310684   8.9310684
   0.5426625   0.5426625   0.5341301   0.5341301   0.5461664   0.5461664
   0.5423793   0.5423793   0.5414154   0.5414154   0.5208665   0.5208665
   0.5463088   0.5463088   0.5403571   0.5403571   0.5231484   0.5231484
   0.5733218   0.5733218   0.5255379   0.5255379   0.5275445   0.5275445
 TTTTTTTTTTTTTTTTTTTTTTTTTTTTTT MOQGAD      TELAPSE      111.98 TCPU      111.22
 TTTTTTTTTTTTTTTTTTTTTTTTTTTTTT SHELLXN     TELAPSE      121.54 TCPU      120.78
 +++ ENERGIES IN A.U. +++
 ::: EXT EL-POLE                                  -9.3060353864279E+02
 ::: EXT EL-SPHEROPOLE                             1.1259641114299E+01
 ::: BIELET ZONE E-E                               1.1721029019209E+03
 ::: TOTAL E-E                                     2.5275900439239E+02
 ::: TOTAL E-N + N-E                              -1.8330753358400E+03
 ::: TOTAL N-N                                    -1.7635465969364E+02
 ::: KINETIC ENERGY                                9.0978048382689E+02
 ::: PSEUDO TOTAL   ENERGY                        -8.4689050731435E+02
 ::: VIRIAL COEFFICIENT                            1.0358006575105E+00
 TTTTTTTTTTTTTTTTTTTTTTTTTTTTTT MONMO3      TELAPSE      122.74 TCPU      121.97
 NUMERICALLY INTEGRATED DENSITY    120.0000027154
 TTTTTTTTTTTTTTTTTTTTTTTTTTTTTT NUMDFT      TELAPSE      124.16 TCPU      123.40
 CYC   8 ETOT(AU) -9.155456906075E+02 DETOT -2.33E-08 tst  7.90E-10 PX  1.58E-04

 == SCF ENDED - CONVERGENCE ON ENERGY      E(AU) -9.1554569060749E+02 CYCLES   8


 ENERGY EXPRESSION=HARTREE+FOCK EXCH*0.00000+(HSE-3c     EXCH)*1.00000+PBEh-3c    CORR


 TOTAL ENERGY(DFT)(AU)(  8) -9.1554569060749E+02 DE-2.3E-08 tester 7.9E-10
 TTTTTTTTTTTTTTTTTTTTTTTTTTTTTT EDFT        TELAPSE      124.16 TCPU      123.40
 
 INFORMATION **** DFTD3 ENERGY **** CALCULATE DFTD3 ENERGY

           DFT-D V3(BJ)
 DF                                         hse3c     
 parameters
 s6       :    1.0000
 s8       :    0.0000
 a1       :    0.4411
 a2       :    4.5182
 k1 k3    :   16.0000   -4.0000
 Cutoff   :   50.2022
 CN-Cutoff:   21.1671
 
 Edisp /kcal,au:   -22.3246 -0.03557651

 E6    /kcal :   -23.9736
 E8    /kcal :     0.0000
 E6(ABC) "   :   1.648985
 
 INFORMATION **** DFTD3 ENERGY **** NORMAL TERMINATION OF DFTD3 MODULE

 GCP ENERGY CALCULATION
  level           hse3c               basis:hse3c
  Nbf            228
  Atoms           36

  Parameters: 
  sigma     1.0000
  eta       1.4086
  alpha     0.2908
  beta      1.9526

  dmp_scal      4.0000
  dmp_exp       6.0000
 cutoffs: 
   distance [bohr] 60.0
   noise    [a.u.] 2.2E-16
 SR-damping   T
 ** gCP correction **
  Egcp:        0.1483809612 / (a.u.) ||      93.1105 / (kcal/mol)
 INFORMATION **** GCP **** NORMAL TERMINATION OF GCP MODULE

 *******************************************************************************

 DFT-D3-GCP DISPERSION AND COUNTERPOISE CORRECTION

 D3 DISPERSION ENERGY (AU)      -3.5576509658263E-02
 GCP ENERGY (AU)                 1.4838096117746E-01
 TOTAL ENERGY + DISP + GCP (AU) -9.1543288615597E+02

 *******************************************************************************

 EIGENVECTORS IN FORTRAN UNIT  8
 TTTTTTTTTTTTTTTTTTTTTTTTTTTTTT END         TELAPSE      125.65 TCPU      124.49
 EEEEEEEEEE TERMINATION  DATE 25 03 2019 TIME 17:54:46.4
NODE    0 CPU TIME =       124.488
NODE    1 CPU TIME =       124.749
NODE    2 CPU TIME =       117.633
NODE    3 CPU TIME =       123.633
NODE    4 CPU TIME =       124.745
NODE    5 CPU TIME =       124.804
NODE    6 CPU TIME =       122.588
NODE    7 CPU TIME =       124.723
    TOTAL CPU TIME =       987.364
