 PROCESS            2  OF            8  WORKING
 PROCESS            6  OF            8  WORKING
 PROCESS            0  OF            8  WORKING

         
 *******************************************************************************
 *                                                                             *
 *                               CRYSTAL17                                     *
 *                      public : 1.0.1 - Feb 1st, 2017                         *
 *                       HTTP://WWW.CRYSTAL.UNITO.IT                           *
 *                                                                             *
 *                              MAIN AUTHORS                                   *
 *                                                                             *
 *  R. DOVESI(1,11), V.R. SAUNDERS(2), C. ROETTI(1,11), R. ORLANDO(1,11),      *
 *  C.M. ZICOVICH-WILSON(1,3), F. PASCALE(4), B. CIVALLERI(1,11),              *
 *  K. DOLL(5), N.M. HARRISON(2,6), I.J. BUSH(7), Ph. D'ARCO(8),               *
 *  M. LLUNELL(9), M. CAUSA'(10), Y. NOEL(8), L. MASCHIO(1,11), A. ERBA(1,11)  *
 *  M. RE'RAT(14), S. CASASSA(1,11)                                            *
 *                                                                             *
 *        CONTRIBUTIONS TO THE CODE HAVE ALSO BEEN GIVEN BY                    *
 *                                                                             *
 *  M. FERRABONE(1,11), M. DE LA PIERRE(1,11), M. FERRERO(1,11),               *
 *  J. BAIMA(1,11), E. ALBANESE(1,11), M.F. PEINTINGER(12), R. BAST(13),       *
 *  B. KIRTMAN(15), V. LACIVITA(1,11), R. DEMICHELIS(1,16)                     *
 *  G. BRANDEBURG(17), S. SALUSTRO(1,11), G. SANSONE(1,11)                     *
 *  M.T. RUGGIERO(18)                                                          *
 *                                                                             *
 * (1) THEORETICAL CHEMISTRY GROUP - UNIVERSITA' DI TORINO - TORINO (ITALY)    *

 * (2) COMPUTATIONAL SCIENCE & ENGINEERING DEPARTMENT - STFC DARESBURY (UK)    *
 * (3) UNIVERSIDAD AUTONOMA DEL ESTADO DE MORELOS - CUERNAVACA (MEXICO)        *
 * (4) UNIVERSITE' DE LORRAINE - NANCY (FRANCE)                                *
 * (5) UNIVERSITAET STUTTGART- STUTTGART (GERMANY)                             *
 * (6) IMPERIAL COLLEGE - LONDON (UK)                                          *
 * (7) OXFORD E-RESEARCH CENTRE - OXFORD (UK)                                  *
 * (8) UPMC - SORBONNE UNIVERSITES - PARIS (FRANCE)                            *
 * (9) UNIVERSIDAD DE BARCELONA - BARCELONA (SPAIN)                            *
 *(10) UNIVERSITA' DI NAPOLI "FEDERICO II" - NAPOLI (ITALY)                    *
 *(11) NIS - NANOSTRUCTURED INTERFACES AND SURFACES - TORINO (ITALY)           *
 *(12) MPI FUER CHEMISCHE ENERGIEKONVERSION - MUELHEIM AN DER RUHR (GERMANY)   *
 *(13) UNIVERSITY OF TROMSO - TROMSO (NORWAY)                                  *
 *(14) UNIVERSITE' DE PAU ET DES PAYS DE L'ADOUR - PAU (FRANCE)                *
 *(15) UNIVERSITY OF CALIFORNIA SANTA BARBARA - SANTA BARBARA (USA)            *
 *(16) CURTIN UNIVERSITY - PERTH (AUSTRALIA)                                   *
 *(17) UNIVERSITY COLLEGE LONDON - LONDON (UK)                                 *
 *(18) CAMBRIDGE UNIVERSITY - CAMBRIDGE (UK)                                   *
 *                                                                             *
 *******************************************************************************
 EEEEEEEEEE STARTING  DATE 25 03 2019 TIME 17:48:42.8
 PROCESS            4  OF            8  WORKING
 !drive by JGB                                                                   
 PROCESS            7  OF            8  WORKING
 PROCESS            1  OF            8  WORKING

 CRYSTAL CALCULATION
 (INPUT ACCORDING TO THE INTERNATIONAL TABLES FOR X-RAY CRYSTALLOGRAPHY)
 CRYSTAL FAMILY                       :  MONOCLINIC  
 CRYSTAL CLASS  (GROTH - 1921)        :  MONOCLINIC DOMATIC                   

 SPACE GROUP (NONCENTROSYMMETRIC)     :  C C             

 LATTICE PARAMETERS  (ANGSTROMS AND DEGREES) - CONVENTIONAL CELL
        A           B           C        ALPHA        BETA       GAMMA
     4.36554     7.50750     7.06745    90.00000    90.70514    90.00000
 PROCESS            5  OF            8  WORKING
 PROCESS            3  OF            8  WORKING


 NUMBER OF IRREDUCIBLE ATOMS IN THE CONVENTIONAL CELL:    6

 INPUT COORDINATES

 ATOM AT. N.              COORDINATES
   1   8     5.064514566247E-01  8.349871415245E-01  1.452978799819E-01
   2   8     5.051319346812E-01  1.695977636120E-01  2.225891218842E-02
   3   1     5.032517869472E-01  8.325447990034E-01  2.853213265659E-01
   4   1     3.186221229202E-01  7.730355595270E-01  1.005279037569E-01
   5   1     5.016618115310E-01  4.547793021291E-02  6.976988932788E-02
   6   1     3.185408872957E-01  2.292116248966E-01  6.928408817900E-02

 *******************************************************************************

 << INFORMATION >>: FROM NOW ON, ALL COORDINATES REFER TO THE PRIMITIVE CELL

 *******************************************************************************

 LATTICE PARAMETERS  (ANGSTROMS AND DEGREES) - PRIMITIVE CELL
       A          B          C        ALPHA      BETA     GAMMA        VOLUME
    4.34225    4.34225    7.06745    89.64555  90.35445  60.35524    115.806599

 COORDINATES OF THE EQUIVALENT ATOMS (FRACTIONAL UNITS)

 N. ATOM EQUIV AT. N.          X                  Y                  Z

   1   1   1    8 O     3.41438598149E-01  3.28535684900E-01  1.45297879982E-01
   2   1   2    8 O    -3.28535684900E-01 -3.41438598149E-01 -3.54702120018E-01

   3   2   1    8 O    -3.25270301707E-01 -3.35534171069E-01  2.22589121884E-02
   4   2   2    8 O     3.35534171069E-01  3.25270301707E-01 -4.77741087812E-01

   5   3   1    1 H     3.35796585951E-01  3.29293012056E-01  2.85321326566E-01
   6   3   2    1 H    -3.29293012056E-01 -3.35796585951E-01 -2.14678673434E-01

   7   4   1    1 H     9.16576824472E-02  4.54413436607E-01  1.00527903757E-01
   8   4   2    1 H    -4.54413436607E-01 -9.16576824472E-02 -3.99472096243E-01

   9   5   1    1 H    -4.52860258256E-01 -4.56183881318E-01  6.97698893279E-02
  10   5   2    1 H     4.56183881318E-01  4.52860258256E-01 -4.30230110672E-01

  11   6   1    1 H    -4.52247487808E-01 -8.93292623991E-02  6.92840881790E-02
  12   6   2    1 H     8.93292623991E-02  4.52247487808E-01 -4.30715911821E-01

 NUMBER OF SYMMETRY OPERATORS         :    2
 *******************************************************************************
 * GEOMETRY EDITING - INPUT COORDINATES ARE GIVEN IN ANGSTROM         
 *******************************************************************************

 GEOMETRY NOW FULLY CONSISTENT WITH THE GROUP

 GCALCO - MAX INDICES DIRECT LATTICE VECTOR    18    18     9
 NO.OF VECTORS CREATED 6999 STARS 1839 RMAX   109.22292 BOHR

 GEOMETRY FOR WAVE FUNCTION - DIMENSIONALITY OF THE SYSTEM    3
 (NON PERIODIC DIRECTION: LATTICE PARAMETER FORMALLY SET TO 500)
 *******************************************************************************
 LATTICE PARAMETERS (ANGSTROMS AND DEGREES) - BOHR = 0.5291772083 ANGSTROM
 PRIMITIVE CELL - CENTRING CODE 4/0 VOLUME=   115.806599 - DENSITY  1.033 g/cm^3
         A              B              C           ALPHA      BETA       GAMMA 
     4.34224929     4.34224929     7.06744666    89.645545  90.354455  60.355242
 *******************************************************************************
 ATOMS IN THE ASYMMETRIC UNIT    6 - ATOMS IN THE UNIT CELL:   12
     ATOM                 X/A                 Y/B                 Z/C    
 *******************************************************************************
      1 T   8 O     3.414385981492E-01  3.285356848998E-01  1.452978799819E-01
      2 F   8 O    -3.285356848998E-01 -3.414385981492E-01 -3.547021200181E-01
      3 T   8 O    -3.252703017068E-01 -3.355341710692E-01  2.225891218842E-02
      4 F   8 O     3.355341710692E-01  3.252703017068E-01 -4.777410878116E-01
      5 T   1 H     3.357965859506E-01  3.292930120562E-01  2.853213265659E-01
      6 F   1 H    -3.292930120562E-01 -3.357965859506E-01 -2.146786734341E-01
      7 T   1 H     9.165768244720E-02  4.544134366068E-01  1.005279037569E-01
      8 F   1 H    -4.544134366068E-01 -9.165768244720E-02 -3.994720962431E-01
      9 T   1 H    -4.528602582561E-01 -4.561838813181E-01  6.976988932788E-02
     10 F   1 H     4.561838813181E-01  4.528602582561E-01 -4.302301106721E-01
     11 T   1 H    -4.522474878077E-01 -8.932926239910E-02  6.928408817900E-02
     12 F   1 H     8.932926239910E-02  4.522474878077E-01 -4.307159118210E-01

 TRANSFORMATION MATRIX PRIMITIVE-CRYSTALLOGRAPHIC CELL
  1.0000  1.0000  0.0000 -1.0000  1.0000  0.0000  0.0000  0.0000  1.0000

 *******************************************************************************
 CRYSTALLOGRAPHIC CELL (VOLUME=        231.61319823)
         A              B              C           ALPHA      BETA       GAMMA 
     4.36554403     7.50749898     7.06744666    90.000000  90.705140  90.000000

 COORDINATES IN THE CRYSTALLOGRAPHIC CELL
     ATOM                 X/A                 Y/B                 Z/C    
 *******************************************************************************
      1 T   8 O    -4.935485433753E-01 -1.650128584755E-01  1.452978799819E-01
      2 F   8 O    -4.935485433753E-01  1.650128584755E-01 -3.547021200181E-01
      3 T   8 O     5.131934681200E-03 -3.304022363880E-01  2.225891218842E-02
      4 F   8 O    -4.948680653188E-01 -1.695977636120E-01 -4.777410878116E-01
      5 T   1 H     3.251786947200E-03  3.325447990034E-01  2.853213265659E-01
      6 F   1 H    -4.967482130528E-01  1.674552009966E-01 -2.146786734341E-01
      7 T   1 H     3.186221229202E-01 -2.269644404730E-01  1.005279037569E-01
      8 F   1 H    -1.813778770798E-01 -2.730355595270E-01 -3.994720962431E-01
      9 T   1 H    -4.983381884690E-01  4.547793021291E-02  6.976988932788E-02
     10 F   1 H    -4.983381884690E-01 -4.547793021291E-02 -4.302301106721E-01
     11 T   1 H    -1.814591127043E-01 -2.707883751034E-01  6.928408817900E-02
     12 F   1 H    -1.814591127043E-01  2.707883751034E-01 -4.307159118210E-01

 T = ATOM BELONGING TO THE ASYMMETRIC UNIT

 ****    2 SYMMOPS - TRANSLATORS IN FRACTIONAL UNITS
 **** MATRICES AND TRANSLATORS IN THE CRYSTALLOGRAPHIC REFERENCE FRAME
   V INV                    ROTATION MATRICES                   TRANSLATORS
   1   1  1.00  0.00  0.00  0.00  1.00  0.00  0.00  0.00  1.00  0.00  0.00  0.00
   2   2  0.00 -1.00  0.00 -1.00 -0.00  0.00  0.00  0.00  1.00  0.00  0.00  0.50

 DIRECT LATTICE VECTORS CARTESIAN COMPONENTS (ANGSTROM)
          X                    Y                    Z
   0.218277201500E+01   0.375374949000E+01   0.000000000000E+00
  -0.218277201500E+01   0.375374949000E+01   0.000000000000E+00
  -0.869769741824E-01   0.432756296516E-15   0.706691143980E+01


 CARTESIAN COORDINATES - PRIMITIVE CELL
 *******************************************************************************
 *      ATOM          X(ANGSTROM)         Y(ANGSTROM)         Z(ANGSTROM)
 *******************************************************************************
    1     8 O    -2.167245467003E+00 -1.238833866692E+00  1.026807250222E+00
    2     8 O    -2.123756979912E+00  1.238833866692E+00 -2.506648469675E+00
    3     8 O     2.046767397912E-02 -2.480494452673E+00  1.573017611817E-01
    4     8 O    -2.118815853930E+00 -1.273255037327E+00 -3.376153958716E+00
    5     1 H    -1.062056656024E-02  2.496579739322E+00  2.016340546726E+00
    6     1 H    -2.149904094469E+00  1.257169750678E+00 -1.517115173171E+00
    7     1 H     1.382215293651E+00 -1.703935305347E+00  7.104217930783E-01
    8     1 H    -7.570682342583E-01 -2.049814184653E+00 -2.823033926819E+00
    9     1 H    -2.181585677455E+00  3.414255146859E-01  4.930576290444E-01
   10     1 H    -2.138097190363E+00 -3.414255146859E-01 -3.040398090853E+00
   11     1 H    -7.981938665042E-01 -2.032943449885E+00  4.896245153479E-01
   12     1 H    -7.547053794129E-01  2.032943449885E+00 -3.043831204550E+00

 *******************************************************************************
 STARTING BASIS SET HANDLING 
 *******************************************************************************

 Loading internal basis set: DEF2-MSVP           

 Please cite in your publication:
 Fully Optimized Contracted Gaussian Basis Sets for Atoms Li to Kr. A. Schäfer, 
 H. Horn and R. Ahlrichs; J. Chem. Phys. 97, 2571 (1992).                       
                                                                                
                    
 S. Grimme, J. G. Brandenburg, C. Bannwarth, and A. Hansen, J. Chem. Phys., 143,
  054107 (2015).                                                                
                                                                                
                    

 *******************************************************************************
 LOCAL ATOMIC FUNCTIONS BASIS SET
 *******************************************************************************
   ATOM   X(AU)   Y(AU)   Z(AU)  N. TYPE  EXPONENT  S COEF   P COEF   D/F/G COEF
 *******************************************************************************
   1 O   -4.096  -2.341   1.940
                                  1 S  
                                         6.773E+03 1.727E-03 0.000E+00 0.000E+00
                                         1.017E+03 1.325E-02 0.000E+00 0.000E+00
                                         2.313E+02 6.603E-02 0.000E+00 0.000E+00
                                         6.501E+01 2.353E-01 0.000E+00 0.000E+00
                                         2.050E+01 5.498E-01 0.000E+00 0.000E+00
                                  2 S  
                                         6.716E+00 1.000E+00 0.000E+00 0.000E+00
                                  3 S  
                                         1.147E+00 1.000E+00 0.000E+00 0.000E+00
                                  4 S  
                                         3.342E-01 1.000E+00 0.000E+00 0.000E+00
                           5-     7 P  
                                         1.769E+01 0.000E+00 4.359E-02 0.000E+00
                                         3.854E+00 0.000E+00 2.318E-01 0.000E+00
                                         1.047E+00 0.000E+00 5.146E-01 0.000E+00
                           8-    10 P  
                                         2.759E-01 0.000E+00 1.000E+00 0.000E+00
                          11-    15 D  
                                         8.000E-01 0.000E+00 0.000E+00 1.000E+00
   2 O   -4.013   2.341  -4.737
   3 O    0.039  -4.687   0.297
   4 O   -4.004  -2.406  -6.380
   5 H   -0.020   4.718   3.810
                                 61 S  
                                         1.874E+01 1.968E-02 0.000E+00 0.000E+00
                                         2.826E+00 1.380E-01 0.000E+00 0.000E+00
                                         6.401E-01 4.783E-01 0.000E+00 0.000E+00
                                 62 S  
                                         1.756E-01 1.000E+00 0.000E+00 0.000E+00
   6 H   -4.063   2.376  -2.867
   7 H    2.612  -3.220   1.343
   8 H   -1.431  -3.874  -5.335
   9 H   -4.123   0.645   0.932
  10 H   -4.040  -0.645  -5.746
  11 H   -1.508  -3.842   0.925
  12 H   -1.426   3.842  -5.752

 *******************************************************************************
 FINISHED BASIS SET HANDLING 
 *******************************************************************************

 INFORMATION **** SET_MPP **** PCRYSTAL CALCULATION
 INFORMATION **** READM2 **** NEW DEFAULT: FOCK/KS MATRIX MIXING SET TO 30 %
 INFORMATION **** READM2 **** NEW DEFAULT: FULL DIRECT SCF MODE
 INFORMATION **** READM2 **** NEW DEFAULT: COULOMB BIPOLAR BUFFER SET TO 32 Mb
 INFORMATION **** READM2 **** NEW DEFAULT: EXCHANGE BIPOLAR BUFFER SET TO 32 Mb

 *******************************************************************************
 NEW DEFAULT: DFT INTEGRATION GRID INCREASED TO XLGRID
 NEW DEFAULT: DIIS ACCELERATOR ACTIVE
 USE KEYWORD NODIIS TO TURN IT OFF
 *******************************************************************************

 INFORMATION **** RDDFTP **** HSE-3c calculation
 INFORMATION **** RDDFTP **** HSE screened hybrid functional combined with D3 and gCP

PLEASE CITE:
(1) HSE-3c Reference
 J. G. Brandenburg, E. Caldeweyer, and S. Grimme, 
 Phys. Chem. Chem. Phys. 18, 15519 (2016)
(2) DFT-D3 Reference
 S. Grimme, J. Antony, S. Ehrlich,
 and H. Krieg, J. Chem. Phys. 132, 154104 (2010)
(3) gCP Reference
 H. Kruse and S. Grimme J. Chem. Phys, 136, 154101 (2012)
 J. G. Brandenburg, M. Alessio, B. Civalleri, M. F. Peintinger
 T. Bredow, and S. Grimme, J. Phys. Chem. A, 117, 9282 (2013) 

 WARNING **** RDDFTP **** HSE3c-HJS ACTIVE
 RANGE SEPARATION - OMEGA:   0.110000000000000     
 WARNING **** RDDFTP **** HSE-3c has to be combined with def2-mSVP basis set
 WARNING **** RDDFTP **** Note: Harmonic frequencies are scaled by 0.95
 WARNING **** RDDFTP **** as recommended in original publication
 INFORMATION **** BIPOSIZE **** COULOMB BIPOLAR BUFFER SET TO    60000000
 INFORMATION **** EXCHSIZE **** EXCHANGE BIPOLAR BUFFER SIZE SET TO    40000000
 *******************************************************************************
 N. OF ATOMS PER CELL        12  COULOMB OVERLAP TOL         (T1) 10**   -6
 NUMBER OF SHELLS            44  COULOMB PENETRATION TOL     (T2) 10**   -6
 NUMBER OF AO                76  EXCHANGE OVERLAP TOL        (T3) 10**   -6
 N. OF ELECTRONS PER CELL    40  EXCHANGE PSEUDO OVP (F(G))  (T4) 10**   -6
 CORE ELECTRONS PER CELL      8  EXCHANGE PSEUDO OVP (P(G))  (T5) 10**  -12
 N. OF SYMMETRY OPERATORS     2  POLE ORDER IN MONO ZONE                  4
 *******************************************************************************
 TYPE OF CALCULATION :  RESTRICTED CLOSED SHELL
 KOHN-SHAM HAMILTONIAN

 (EXCHANGE)[CORRELATION] FUNCTIONAL:(HSE-3c)[PBEh-3c]

 RANGE-SEPARATED HYBRID FUNCTIONAL 
 OMEGA (SHORT-RANGE)[LONG-RANGE]:(    0.1100)[    0.0000]

 HYBRID EXCHANGE - PERCENTAGE OF FOCK EXCHANGE    42.0000

 CAPPA:IS1  3;IS2  3;IS3  3; K PTS MONK NET  10; SYMMOPS:K SPACE   4;G SPACE   2

 *******************************************************************************
 MAX NUMBER OF SCF CYCLES      50  CONVERGENCE ON DELTAP        10**-16
 WEIGHT OF F(I) IN F(I+1)      30% CONVERGENCE ON ENERGY        10**- 6
 S(K) EIGENV. THRESHOLD  10*10.**-4
 SHRINK. FACT.(MONKH.)    3  3  3  NUMBER OF K POINTS IN THE IBZ     10
 SHRINKING FACTOR(GILAT NET)    3  NUMBER OF K POINTS(GILAT NET)     10
 *******************************************************************************
 *** K POINTS COORDINATES (OBLIQUE COORDINATES IN UNITS OF IS =  3)
   1-R(  0  0  0)   2-C(  1  0  0)   3-C(  1  1  0)   4-C(  2  1  0)
   5-C(  0  0  1)   6-C(  1  0  1)   7-C(  2  0  1)   8-C(  1  1  1)
   9-C(  2  1  1)  10-C(  1  2  1)

 DIRECT LATTICE VECTORS COMPON. (A.U.)     RECIP. LATTICE VECTORS COMPON. (A.U.) 
        X            Y            Z              X            Y            Z
    4.1248413    7.0935585    0.0000000      0.7616275    0.4428796    0.0093738
   -4.1248413    7.0935585    0.0000000     -0.7616275    0.4428796   -0.0093738
   -0.1643627    0.0000000   13.3545272      0.0000000    0.0000000    0.4704910

 DISK SPACE FOR EIGENVECTORS (FTN 10)      109744 REALS

 SYMMETRY ADAPTION OF THE BLOCH FUNCTIONS ENABLED
 TTTTTTTTTTTTTTTTTTTTTTTTTTTTTT gordsh1     TELAPSE        0.17 TCPU        0.06

 MATRIX SIZE: P(G)   39140, F(G)    6660, P(G) IRR   10492, F(G) IRR    3483
 MAX G-VECTOR INDEX FOR 1- AND 2-ELECTRON INTEGRALS 111

 TTTTTTTTTTTTTTTTTTTTTTTTTTTTTT INPUT       TELAPSE        0.17 TCPU        0.06

 NEIGHBORS OF THE NON-EQUIVALENT ATOMS

 N = NUMBER OF NEIGHBORS AT DISTANCE R
    ATOM  N     R/ANG      R/AU   NEIGHBORS (ATOM LABELS AND CELL INDICES)
   1 O    1     0.9900     1.8709    5 H   -1 0 0
   1 O    1     0.9912     1.8730    7 H   -1 1 0
   1 O    1     1.6680     3.1521    9 H    0 0 0
   1 O    1     1.6714     3.1584   11 H    0 0 0
   1 O    1     2.6534     5.0143    3 O   -1 1 0
   1 O    1     2.6583     5.0235    3 O    0 1 0

   3 O    1     0.9904     1.8716   11 H    0 0 0
   3 O    1     0.9907     1.8721    9 H    0-1 0
   3 O    1     1.6623     3.1413    7 H    0 0 0
   3 O    1     1.6745     3.1644    6 H    0-1 0
   3 O    1     2.6534     5.0143    1 O    1-1 0
   3 O    1     2.6583     5.0235    1 O    0-1 0

   5 H    1     0.9900     1.8709    1 O    1 0 0
   5 H    1     1.5903     3.0052    7 H    0 1 0
   5 H    1     1.6745     3.1644    4 O    1 0 1
   5 H    1     2.2082     4.1728    9 H    1 0 0
   5 H    1     2.2089     4.1742   11 H    1 0 0
   5 H    1     2.2092     4.1747   10 H    1 0 1

   7 H    1     0.9912     1.8730    1 O    1-1 0
   7 H    1     1.5903     3.0052    5 H    0-1 0
   7 H    1     1.6623     3.1413    3 O    0 0 0
   7 H    1     2.2075     4.1716    9 H    0-1 0
   7 H    1     2.2076     4.1718    9 H    1-1 0
   7 H    1     2.2161     4.1879   11 H    0 0 0

   9 H    1     0.9907     1.8721    3 O    0 1 0
   9 H    1     1.5943     3.0127   11 H    0 1 0
   9 H    1     1.6680     3.1521    1 O    0 0 0
   9 H    1     2.2075     4.1716    7 H    0 1 0
   9 H    1     2.2076     4.1718    7 H   -1 1 0
   9 H    1     2.2082     4.1728    5 H   -1 0 0

  11 H    1     0.9904     1.8716    3 O    0 0 0
  11 H    1     1.5943     3.0127    9 H    0-1 0
  11 H    1     1.6714     3.1584    1 O    0 0 0
  11 H    1     2.2089     4.1742    5 H   -1 0 0
  11 H    1     2.2161     4.1879    7 H    0 0 0
  11 H    1     2.2208     4.1966    7 H   -1 1 0


 SYMMETRY ALLOWED INTERNAL DEGREE(S) OF FREEDOM:  16
 TTTTTTTTTTTTTTTTTTTTTTTTTTTTTT SYMM        TELAPSE        0.39 TCPU        0.27
 TTTTTTTTTTTTTTTTTTTTTTTTTTTTTT INT_SCREEN  TELAPSE        0.40 TCPU        0.29

 DFT PARAMETERS

     ATOM       ELECTRONS   NET CHARGE   R(ANGSTROM)
   1   8  O       8.0000      0.0000     0.74000000
   5   1  H       1.0000      0.0000     1.11000000

 SIZE OF GRID=     140136
 TTTTTTTTTTTTTTTTTTTTTTTTTTTTTT MAKE_GRID2  TELAPSE        2.30 TCPU        2.18
 BECKE WEIGHT FUNCTION
 RADSAFE =     2.00
 TOLERANCES - DENSITY:10**- 6; POTENTIAL:10**- 9; GRID WGT:10**-14

 RADIAL INTEGRATION  - INTERVALS (POINTS,UPPER LIMIT):            1( 75,  4.0*R)

 ANGULAR INTEGRATION - INTERVALS (ACCURACY LEVEL [N. POINTS] UPPER LIMIT):
  1(  4[  86]   0.2)  2(  8[ 194]   0.5)  3( 12[ 350]   0.9)  4( 16[ 974]   3.5)
  5( 12[ 350]9999.0)
 TTTTTTTTTTTTTTTTTTTTTTTTTTTTTT INT_CALC    TELAPSE        2.32 TCPU        2.20
 EEEEEEEEEE INT_CALC TERMINATION  DATE 25 03 2019 TIME 17:48:45.0

 *******************************************************************************
 !drive by JGB                                                                   
 CRYSTAL - SCF - TYPE OF CALCULATION :  RESTRICTED CLOSED SHELL
 *******************************************************************************

 CAPPA:IS1  3;IS2  3;IS3  3; K PTS MONK NET  10; SYMMOPS:K SPACE   4;G SPACE   2

 TTTTTTTTTTTTTTTTTTTTTTTTTTTTTT SDIK        TELAPSE        2.41 TCPU        2.22

 AAAAAAAAAAAAAAAAAAAAAAAAAAAAAAAAAAAAAAAAAAAAAAAAAAAAAAAAAAAAAAAAAAAAAAAAAAAAAAA
         ATOMIC WAVEFUNCTION(S)


 NUCLEAR CHARGE  8.0  SYMMETRY SPECIES            S    P
 N. ELECTRONS    8.0  NUMBER OF PRIMITIVE GTOS    8    4
                      NUMBER OF CONTRACTED GTOS   4    2
                      NUMBER OF CLOSED SHELLS     2    0
                      OPEN SHELL OCCUPATION       0    4

  ZNUC SCFIT  TOTAL HF ENERGY   KINETIC ENERGY   VIRIAL THEOREM ACCURACY
   8.0  12   -7.477373220E+01  7.477365593E+01 -2.000001020E+00  3.8E-06

 NUCLEAR CHARGE  1.0  SYMMETRY SPECIES            S
 N. ELECTRONS    1.0  NUMBER OF PRIMITIVE GTOS    4
                      NUMBER OF CONTRACTED GTOS   2
                      NUMBER OF CLOSED SHELLS     0
                      OPEN SHELL OCCUPATION       1

  ZNUC SCFIT  TOTAL HF ENERGY   KINETIC ENERGY   VIRIAL THEOREM ACCURACY
   1.0   1   -4.977266687E-01  5.190767460E-01 -1.958869132E+00  1.8E-16

 AAAAAAAAAAAAAAAAAAAAAAAAAAAAAAAAAAAAAAAAAAAAAAAAAAAAAAAAAAAAAAAAAAAAAAAAAAAAAAA

 CHARGE NORMALIZATION FACTOR   1.00000000
 TOTAL ATOMIC CHARGES:
   8.0000000   8.0000000   8.0000000   8.0000000   1.0000000   1.0000000
   1.0000000   1.0000000   1.0000000   1.0000000   1.0000000   1.0000000
 TTTTTTTTTTTTTTTTTTTTTTTTTTTTTT MOQGAD      TELAPSE        2.46 TCPU        2.27
 TTTTTTTTTTTTTTTTTTTTTTTTTTTTTT SHELLXN     TELAPSE        4.47 TCPU        4.27
 TTTTTTTTTTTTTTTTTTTTTTTTTTTTTT MONMO3      TELAPSE        4.82 TCPU        4.62
 NUMERICALLY INTEGRATED DENSITY     40.0000075556
 TTTTTTTTTTTTTTTTTTTTTTTTTTTTTT NUMDFT      TELAPSE        5.02 TCPU        4.82
 CYC   0 ETOT(AU) -3.053548488564E+02 DETOT -3.05E+02 tst  0.00E+00 PX  1.00E+00
 TTTTTTTTTTTTTTTTTTTTTTTTTTTTTT DIIS        TELAPSE        5.02 TCPU        4.82
 TTTTTTTTTTTTTTTTTTTTTTTTTTTTTT FDIK        TELAPSE        5.08 TCPU        4.85
 INSULATING STATE
 TOP OF VALENCE BANDS -    BAND     20; K    4; EIG -4.1519958E-01 AU
 TOP OF VALENCE BANDS -    BAND     20; K    1; EIG -4.2219976E-01 AU
 BOTTOM OF VIRTUAL BANDS - BAND     21; K    1; EIG -4.8992458E-02 AU
 INDIRECT ENERGY BAND GAP:   9.9650 eV
 TTTTTTTTTTTTTTTTTTTTTTTTTTTTTT PDIG        TELAPSE        5.08 TCPU        4.86
 CHARGE NORMALIZATION FACTOR   1.00000000
 TOTAL ATOMIC CHARGES:
   9.0767919   9.0767919   9.0768359   9.0768359   0.4616821   0.4616821
   0.4616643   0.4616643   0.4617964   0.4617964   0.4612294   0.4612294
 TTTTTTTTTTTTTTTTTTTTTTTTTTTTTT MOQGAD      TELAPSE        5.08 TCPU        4.86
 TTTTTTTTTTTTTTTTTTTTTTTTTTTTTT SHELLXN     TELAPSE        7.13 TCPU        6.90
 TTTTTTTTTTTTTTTTTTTTTTTTTTTTTT MONMO3      TELAPSE        7.49 TCPU        7.26
 NUMERICALLY INTEGRATED DENSITY     40.0000059422
 TTTTTTTTTTTTTTTTTTTTTTTTTTTTTT NUMDFT      TELAPSE        7.92 TCPU        7.68
 CYC   1 ETOT(AU) -3.051006237330E+02 DETOT  2.54E-01 tst  0.00E+00 PX  1.00E+00
 TTTTTTTTTTTTTTTTTTTTTTTTTTTTTT DIIS        TELAPSE        7.94 TCPU        7.70
 DIIS TEST: 0.37771E+00 AT SCF   CYCLE   1 - MIX   30 %
 TTTTTTTTTTTTTTTTTTTTTTTTTTTTTT FDIK        TELAPSE        7.95 TCPU        7.71
 INSULATING STATE
 TOP OF VALENCE BANDS -    BAND     20; K    4; EIG -3.1532491E-01 AU
 TOP OF VALENCE BANDS -    BAND     20; K    1; EIG -3.2448013E-01 AU
 BOTTOM OF VIRTUAL BANDS - BAND     21; K    1; EIG  1.3138752E-02 AU
 INDIRECT ENERGY BAND GAP:   8.9380 eV
 TTTTTTTTTTTTTTTTTTTTTTTTTTTTTT PDIG        TELAPSE        7.95 TCPU        7.71
 CHARGE NORMALIZATION FACTOR   1.00000000
 TOTAL ATOMIC CHARGES:
   8.8787169   8.8787169   8.8790436   8.8790436   0.5614271   0.5614271
   0.5597352   0.5597352   0.5604569   0.5604569   0.5606204   0.5606204
 TTTTTTTTTTTTTTTTTTTTTTTTTTTTTT MOQGAD      TELAPSE        7.95 TCPU        7.71
 TTTTTTTTTTTTTTTTTTTTTTTTTTTTTT SHELLXN     TELAPSE       10.01 TCPU        9.76
 TTTTTTTTTTTTTTTTTTTTTTTTTTTTTT MONMO3      TELAPSE       10.36 TCPU       10.10
 NUMERICALLY INTEGRATED DENSITY     40.0000056849
 TTTTTTTTTTTTTTTTTTTTTTTTTTTTTT NUMDFT      TELAPSE       10.78 TCPU       10.52
 CYC   2 ETOT(AU) -3.051801309784E+02 DETOT -7.95E-02 tst  2.77E-03 PX  1.16E-01
 TTTTTTTTTTTTTTTTTTTTTTTTTTTTTT DIIS        TELAPSE       10.81 TCPU       10.54
 DIIS TEST: 0.76544E-01 AT SCF   CYCLE   2 - DIIS ACTIVE - HISTORY:     2 CYCLES
 TTTTTTTTTTTTTTTTTTTTTTTTTTTTTT FDIK        TELAPSE       10.82 TCPU       10.55
 INSULATING STATE
 TOP OF VALENCE BANDS -    BAND     20; K    4; EIG -3.5649295E-01 AU
 TOP OF VALENCE BANDS -    BAND     20; K    1; EIG -3.6451160E-01 AU
 BOTTOM OF VIRTUAL BANDS - BAND     21; K    1; EIG  1.2626158E-02 AU
 INDIRECT ENERGY BAND GAP:  10.0442 eV
 TTTTTTTTTTTTTTTTTTTTTTTTTTTTTT PDIG        TELAPSE       10.83 TCPU       10.56
 CHARGE NORMALIZATION FACTOR   1.00000000
 TOTAL ATOMIC CHARGES:
   8.9476602   8.9476602   8.9477982   8.9477982   0.5270549   0.5270549
   0.5252572   0.5252572   0.5257887   0.5257887   0.5264407   0.5264407
 TTTTTTTTTTTTTTTTTTTTTTTTTTTTTT MOQGAD      TELAPSE       10.84 TCPU       10.56
 TTTTTTTTTTTTTTTTTTTTTTTTTTTTTT SHELLXN     TELAPSE       12.89 TCPU       12.61
 TTTTTTTTTTTTTTTTTTTTTTTTTTTTTT MONMO3      TELAPSE       13.27 TCPU       12.98
 NUMERICALLY INTEGRATED DENSITY     40.0000057196
 TTTTTTTTTTTTTTTTTTTTTTTTTTTTTT NUMDFT      TELAPSE       13.70 TCPU       13.41
 CYC   3 ETOT(AU) -3.051999642575E+02 DETOT -1.98E-02 tst  2.45E-04 PX  3.92E-02
 TTTTTTTTTTTTTTTTTTTTTTTTTTTTTT DIIS        TELAPSE       13.71 TCPU       13.42
 DIIS TEST: 0.16272E-03 AT SCF   CYCLE   3 - DIIS ACTIVE - HISTORY:     3 CYCLES
 TTTTTTTTTTTTTTTTTTTTTTTTTTTTTT FDIK        TELAPSE       13.74 TCPU       13.43
 INSULATING STATE
 TOP OF VALENCE BANDS -    BAND     20; K    4; EIG -3.5477403E-01 AU
 TOP OF VALENCE BANDS -    BAND     20; K    1; EIG -3.6282017E-01 AU
 BOTTOM OF VIRTUAL BANDS - BAND     21; K    1; EIG  1.4478668E-02 AU
 INDIRECT ENERGY BAND GAP:  10.0479 eV
 TTTTTTTTTTTTTTTTTTTTTTTTTTTTTT PDIG        TELAPSE       13.75 TCPU       13.44
 CHARGE NORMALIZATION FACTOR   1.00000000
 TOTAL ATOMIC CHARGES:
   8.9461311   8.9461311   8.9464193   8.9464193   0.5277719   0.5277719
   0.5260166   0.5260166   0.5265233   0.5265233   0.5271379   0.5271379
 TTTTTTTTTTTTTTTTTTTTTTTTTTTTTT MOQGAD      TELAPSE       13.75 TCPU       13.44
 TTTTTTTTTTTTTTTTTTTTTTTTTTTTTT SHELLXN     TELAPSE       15.80 TCPU       15.49
 TTTTTTTTTTTTTTTTTTTTTTTTTTTTTT MONMO3      TELAPSE       16.15 TCPU       15.84
 NUMERICALLY INTEGRATED DENSITY     40.0000057121
 TTTTTTTTTTTTTTTTTTTTTTTTTTTTTT NUMDFT      TELAPSE       16.57 TCPU       16.26
 CYC   4 ETOT(AU) -3.052000015529E+02 DETOT -3.73E-05 tst  1.04E-06 PX  1.04E-03
 TTTTTTTTTTTTTTTTTTTTTTTTTTTTTT DIIS        TELAPSE       16.59 TCPU       16.27
 DIIS TEST: 0.51591E-05 AT SCF   CYCLE   4 - DIIS ACTIVE - HISTORY:     4 CYCLES
 TTTTTTTTTTTTTTTTTTTTTTTTTTTTTT FDIK        TELAPSE       16.60 TCPU       16.29
 INSULATING STATE
 TOP OF VALENCE BANDS -    BAND     20; K    4; EIG -3.5471592E-01 AU
 TOP OF VALENCE BANDS -    BAND     20; K    1; EIG -3.6274076E-01 AU
 BOTTOM OF VIRTUAL BANDS - BAND     21; K    1; EIG  1.4666283E-02 AU
 INDIRECT ENERGY BAND GAP:  10.0514 eV
 TTTTTTTTTTTTTTTTTTTTTTTTTTTTTT PDIG        TELAPSE       16.61 TCPU       16.29
 CHARGE NORMALIZATION FACTOR   1.00000000
 TOTAL ATOMIC CHARGES:
   8.9462843   8.9462843   8.9463619   8.9463619   0.5277327   0.5277327
   0.5259811   0.5259811   0.5265197   0.5265197   0.5271203   0.5271203
 TTTTTTTTTTTTTTTTTTTTTTTTTTTTTT MOQGAD      TELAPSE       16.61 TCPU       16.29
 TTTTTTTTTTTTTTTTTTTTTTTTTTTTTT SHELLXN     TELAPSE       18.66 TCPU       18.33
 TTTTTTTTTTTTTTTTTTTTTTTTTTTTTT MONMO3      TELAPSE       19.01 TCPU       18.68
 NUMERICALLY INTEGRATED DENSITY     40.0000057116
 TTTTTTTTTTTTTTTTTTTTTTTTTTTTTT NUMDFT      TELAPSE       19.46 TCPU       19.12
 CYC   5 ETOT(AU) -3.052000026275E+02 DETOT -1.07E-06 tst  3.17E-08 PX  2.27E-04
 TTTTTTTTTTTTTTTTTTTTTTTTTTTTTT DIIS        TELAPSE       19.47 TCPU       19.13
 DIIS TEST: 0.13389E-06 AT SCF   CYCLE   5 - DIIS ACTIVE - HISTORY:     5 CYCLES
 TTTTTTTTTTTTTTTTTTTTTTTTTTTTTT FDIK        TELAPSE       23.03 TCPU       19.13
 INSULATING STATE
 TOP OF VALENCE BANDS -    BAND     20; K    4; EIG -3.5467969E-01 AU
 TOP OF VALENCE BANDS -    BAND     20; K    1; EIG -3.6273259E-01 AU
 BOTTOM OF VIRTUAL BANDS - BAND     21; K    1; EIG  1.4683895E-02 AU
 INDIRECT ENERGY BAND GAP:  10.0509 eV
 TTTTTTTTTTTTTTTTTTTTTTTTTTTTTT PDIG        TELAPSE       23.04 TCPU       19.14
 CHARGE NORMALIZATION FACTOR   1.00000000
 TOTAL ATOMIC CHARGES:
   8.9460844   8.9460844   8.9464392   8.9464392   0.5277827   0.5277827
   0.5260316   0.5260316   0.5265310   0.5265310   0.5271311   0.5271311
 TTTTTTTTTTTTTTTTTTTTTTTTTTTTTT MOQGAD      TELAPSE       23.04 TCPU       19.14
 TTTTTTTTTTTTTTTTTTTTTTTTTTTTTT SHELLXN     TELAPSE       25.09 TCPU       21.19
 TTTTTTTTTTTTTTTTTTTTTTTTTTTTTT MONMO3      TELAPSE       25.44 TCPU       21.54
 NUMERICALLY INTEGRATED DENSITY     40.0000057112
 TTTTTTTTTTTTTTTTTTTTTTTTTTTTTT NUMDFT      TELAPSE       25.88 TCPU       21.98
 CYC   6 ETOT(AU) -3.052000026316E+02 DETOT -4.05E-09 tst  1.79E-09 PX  1.02E-04
 TTTTTTTTTTTTTTTTTTTTTTTTTTTTTT DIIS        TELAPSE       25.88 TCPU       21.98
 DIIS TEST: 0.76831E-07 AT SCF   CYCLE   6 - DIIS ACTIVE - HISTORY:     6 CYCLES
 TTTTTTTTTTTTTTTTTTTTTTTTTTTTTT FDIK        TELAPSE       25.89 TCPU       21.99
 INSULATING STATE
 TOP OF VALENCE BANDS -    BAND     20; K    4; EIG -3.5468531E-01 AU
 TOP OF VALENCE BANDS -    BAND     20; K    1; EIG -3.6272127E-01 AU
 BOTTOM OF VIRTUAL BANDS - BAND     21; K    1; EIG  1.4685920E-02 AU
 INDIRECT ENERGY BAND GAP:  10.0511 eV
 TTTTTTTTTTTTTTTTTTTTTTTTTTTTTT PDIG        TELAPSE       25.90 TCPU       21.99
 CHARGE NORMALIZATION FACTOR   1.00000000
 TOTAL ATOMIC CHARGES:
   8.9461637   8.9461637   8.9463448   8.9463448   0.5277745   0.5277745
   0.5260233   0.5260233   0.5265467   0.5265467   0.5271470   0.5271470
 TTTTTTTTTTTTTTTTTTTTTTTTTTTTTT MOQGAD      TELAPSE       25.90 TCPU       21.99
 TTTTTTTTTTTTTTTTTTTTTTTTTTTTTT SHELLXN     TELAPSE       27.96 TCPU       24.03
 +++ ENERGIES IN A.U. +++
 ::: EXT EL-POLE                                  -2.7378467873762E+02
 ::: EXT EL-SPHEROPOLE                             3.3804351493001E+00
 ::: BIELET ZONE E-E                               3.6019383922426E+02
 ::: TOTAL E-E                                     8.9789595635942E+01
 ::: TOTAL E-N + N-E                              -6.2262559225768E+02
 ::: TOTAL N-N                                    -5.2735060746336E+01
 ::: KINETIC ENERGY                                3.0327395839199E+02
 ::: PSEUDO TOTAL   ENERGY                        -2.8229709897608E+02
 ::: VIRIAL COEFFICIENT                            1.0358229102206E+00
 TTTTTTTTTTTTTTTTTTTTTTTTTTTTTT MONMO3      TELAPSE       28.30 TCPU       24.37
 NUMERICALLY INTEGRATED DENSITY     40.0000057113
 TTTTTTTTTTTTTTTTTTTTTTTTTTTTTT NUMDFT      TELAPSE       28.74 TCPU       24.80
 CYC   7 ETOT(AU) -3.052000026523E+02 DETOT -2.07E-08 tst  3.96E-10 PX  1.02E-04

 == SCF ENDED - CONVERGENCE ON ENERGY      E(AU) -3.0520000265231E+02 CYCLES   7


 ENERGY EXPRESSION=HARTREE+FOCK EXCH*0.00000+(HSE-3c     EXCH)*1.00000+PBEh-3c    CORR


 TOTAL ENERGY(DFT)(AU)(  7) -3.0520000265231E+02 DE-2.1E-08 tester 4.0E-10
 TTTTTTTTTTTTTTTTTTTTTTTTTTTTTT EDFT        TELAPSE       28.75 TCPU       24.80
 
 INFORMATION **** DFTD3 ENERGY **** CALCULATE DFTD3 ENERGY

           DFT-D V3(BJ)
 DF                                         hse3c     
 parameters
 s6       :    1.0000
 s8       :    0.0000
 a1       :    0.4411
 a2       :    4.5182
 k1 k3    :   16.0000   -4.0000
 Cutoff   :   50.2022
 CN-Cutoff:   21.1671
 
 Edisp /kcal,au:    -6.5751 -0.01047814

 E6    /kcal :    -7.0251
 E8    /kcal :     0.0000
 E6(ABC) "   :   0.449958
 
 INFORMATION **** DFTD3 ENERGY **** NORMAL TERMINATION OF DFTD3 MODULE

 GCP ENERGY CALCULATION
  level           hse3c               basis:hse3c
  Nbf             76
  Atoms           12

  Parameters: 
  sigma     1.0000
  eta       1.4086
  alpha     0.2908
  beta      1.9526

  dmp_scal      4.0000
  dmp_exp       6.0000
 cutoffs: 
   distance [bohr] 60.0
   noise    [a.u.] 2.2E-16
 SR-damping   T
 ** gCP correction **
  Egcp:        0.0528649867 / (a.u.) ||      33.1733 / (kcal/mol)
 INFORMATION **** GCP **** NORMAL TERMINATION OF GCP MODULE

 *******************************************************************************

 DFT-D3-GCP DISPERSION AND COUNTERPOISE CORRECTION

 D3 DISPERSION ENERGY (AU)      -1.0478141783579E-02
 GCP ENERGY (AU)                 5.2864986732185E-02
 TOTAL ENERGY + DISP + GCP (AU) -3.0515761580736E+02

 *******************************************************************************

 EIGENVECTORS IN FORTRAN UNIT 10
 TTTTTTTTTTTTTTTTTTTTTTTTTTTTTT END         TELAPSE       29.19 TCPU       25.17
 EEEEEEEEEE TERMINATION  DATE 25 03 2019 TIME 17:49:11.9
NODE    0 CPU TIME =        25.165
NODE    1 CPU TIME =        28.810
NODE    2 CPU TIME =        28.814
NODE    3 CPU TIME =        28.787
NODE    4 CPU TIME =        28.416
NODE    5 CPU TIME =        28.319
NODE    6 CPU TIME =        28.416
NODE    7 CPU TIME =        28.505
    TOTAL CPU TIME =       225.231
