 PROCESS            5  OF            8  WORKING
 PROCESS            7  OF            8  WORKING
 PROCESS            3  OF            8  WORKING
 PROCESS            6  OF            8  WORKING
 PROCESS            4  OF            8  WORKING
 PROCESS            1  OF            8  WORKING
 PROCESS            0  OF            8  WORKING
 PROCESS            2  OF            8  WORKING

         
 *******************************************************************************
 *                                                                             *
 *                               CRYSTAL17                                     *
 *                      public : 1.0.1 - Feb 1st, 2017                         *
 *                       HTTP://WWW.CRYSTAL.UNITO.IT                           *
 *                                                                             *
 *                              MAIN AUTHORS                                   *
 *                                                                             *
 *  R. DOVESI(1,11), V.R. SAUNDERS(2), C. ROETTI(1,11), R. ORLANDO(1,11),      *
 *  C.M. ZICOVICH-WILSON(1,3), F. PASCALE(4), B. CIVALLERI(1,11),              *
 *  K. DOLL(5), N.M. HARRISON(2,6), I.J. BUSH(7), Ph. D'ARCO(8),               *
 *  M. LLUNELL(9), M. CAUSA'(10), Y. NOEL(8), L. MASCHIO(1,11), A. ERBA(1,11)  *
 *  M. RE'RAT(14), S. CASASSA(1,11)                                            *
 *                                                                             *
 *        CONTRIBUTIONS TO THE CODE HAVE ALSO BEEN GIVEN BY                    *
 *                                                                             *
 *  M. FERRABONE(1,11), M. DE LA PIERRE(1,11), M. FERRERO(1,11),               *
 *  J. BAIMA(1,11), E. ALBANESE(1,11), M.F. PEINTINGER(12), R. BAST(13),       *
 *  B. KIRTMAN(15), V. LACIVITA(1,11), R. DEMICHELIS(1,16)                     *
 *  G. BRANDEBURG(17), S. SALUSTRO(1,11), G. SANSONE(1,11)                     *
 *  M.T. RUGGIERO(18)                                                          *
 *                                                                             *
 * (1) THEORETICAL CHEMISTRY GROUP - UNIVERSITA' DI TORINO - TORINO (ITALY)    *

 * (2) COMPUTATIONAL SCIENCE & ENGINEERING DEPARTMENT - STFC DARESBURY (UK)    *
 * (3) UNIVERSIDAD AUTONOMA DEL ESTADO DE MORELOS - CUERNAVACA (MEXICO)        *
 * (4) UNIVERSITE' DE LORRAINE - NANCY (FRANCE)                                *
 * (5) UNIVERSITAET STUTTGART- STUTTGART (GERMANY)                             *
 * (6) IMPERIAL COLLEGE - LONDON (UK)                                          *
 * (7) OXFORD E-RESEARCH CENTRE - OXFORD (UK)                                  *
 * (8) UPMC - SORBONNE UNIVERSITES - PARIS (FRANCE)                            *
 * (9) UNIVERSIDAD DE BARCELONA - BARCELONA (SPAIN)                            *
 *(10) UNIVERSITA' DI NAPOLI "FEDERICO II" - NAPOLI (ITALY)                    *
 *(11) NIS - NANOSTRUCTURED INTERFACES AND SURFACES - TORINO (ITALY)           *
 *(12) MPI FUER CHEMISCHE ENERGIEKONVERSION - MUELHEIM AN DER RUHR (GERMANY)   *
 *(13) UNIVERSITY OF TROMSO - TROMSO (NORWAY)                                  *
 *(14) UNIVERSITE' DE PAU ET DES PAYS DE L'ADOUR - PAU (FRANCE)                *
 *(15) UNIVERSITY OF CALIFORNIA SANTA BARBARA - SANTA BARBARA (USA)            *
 *(16) CURTIN UNIVERSITY - PERTH (AUSTRALIA)                                   *
 *(17) UNIVERSITY COLLEGE LONDON - LONDON (UK)                                 *
 *(18) CAMBRIDGE UNIVERSITY - CAMBRIDGE (UK)                                   *
 *                                                                             *
 *******************************************************************************
 EEEEEEEEEE STARTING  DATE 25 03 2019 TIME 17:52:04.4
 !drive by JGB                                                                   

 CRYSTAL CALCULATION
 (INPUT ACCORDING TO THE INTERNATIONAL TABLES FOR X-RAY CRYSTALLOGRAPHY)
 CRYSTAL FAMILY                       :  TETRAGONAL  
 CRYSTAL CLASS  (GROTH - 1921)        :  DITETRAGONAL DIPYRAMIDAL             

 SPACE GROUP (CENTROSYMMETRIC)        :  P 42/M N M      

 LATTICE PARAMETERS  (ANGSTROMS AND DEGREES) - CONVENTIONAL CELL
        A           B           C        ALPHA        BETA       GAMMA
     7.53743     7.53743     4.36290    90.00000    90.00000    90.00000


 NUMBER OF IRREDUCIBLE ATOMS IN THE CONVENTIONAL CELL:    4

 INPUT COORDINATES

 ATOM AT. N.              COORDINATES
   1   8     1.809139021285E-01  8.190860978715E-01  5.000000000000E-01
   2   8     1.743125835413E-01  1.743125835413E-01  5.000000000000E-01
   3   1     2.356991438637E-01  7.643008561363E-01  6.825968647816E-01
   4   1     1.907339494225E-01  4.421131922570E-02  5.000000000000E-01

 *******************************************************************************

 << INFORMATION >>: FROM NOW ON, ALL COORDINATES REFER TO THE PRIMITIVE CELL

 *******************************************************************************

 LATTICE PARAMETERS  (ANGSTROMS AND DEGREES) - PRIMITIVE CELL
       A          B          C        ALPHA      BETA     GAMMA        VOLUME
    7.53743    7.53743    4.36290    90.00000  90.00000  90.00000    247.868824

 COORDINATES OF THE EQUIVALENT ATOMS (FRACTIONAL UNITS)

 N. ATOM EQUIV AT. N.          X                  Y                  Z

   1   1   1    8 O     1.80913902129E-01 -1.80913902129E-01 -5.00000000000E-01
   2   1   2    8 O    -1.80913902129E-01  1.80913902129E-01 -5.00000000000E-01
   3   1   3    8 O    -3.19086097871E-01 -3.19086097871E-01  0.00000000000E+00
   4   1   4    8 O     3.19086097871E-01  3.19086097871E-01  0.00000000000E+00

   5   2   1    8 O     1.74312583541E-01  1.74312583541E-01 -5.00000000000E-01
   6   2   2    8 O    -1.74312583541E-01 -1.74312583541E-01 -5.00000000000E-01
   7   2   3    8 O    -3.25687416459E-01  3.25687416459E-01  0.00000000000E+00
   8   2   4    8 O     3.25687416459E-01 -3.25687416459E-01  0.00000000000E+00

   9   3   1    1 H     2.35699143864E-01 -2.35699143864E-01 -3.17403135218E-01
  10   3   2    1 H    -2.35699143864E-01  2.35699143864E-01 -3.17403135218E-01
  11   3   3    1 H    -2.64300856136E-01 -2.64300856136E-01 -1.82596864782E-01
  12   3   4    1 H     2.64300856136E-01  2.64300856136E-01 -1.82596864782E-01
  13   3   5    1 H     2.35699143864E-01 -2.35699143864E-01  3.17403135218E-01
  14   3   6    1 H    -2.35699143864E-01  2.35699143864E-01  3.17403135218E-01
  15   3   7    1 H     2.64300856136E-01  2.64300856136E-01  1.82596864782E-01
  16   3   8    1 H    -2.64300856136E-01 -2.64300856136E-01  1.82596864782E-01

  17   4   1    1 H     1.90733949422E-01  4.42113192257E-02 -5.00000000000E-01
  18   4   2    1 H    -1.90733949422E-01 -4.42113192257E-02 -5.00000000000E-01
  19   4   3    1 H    -3.09266050578E-01  4.55788680774E-01  0.00000000000E+00
  20   4   4    1 H     3.09266050578E-01 -4.55788680774E-01  0.00000000000E+00
  21   4   5    1 H    -4.42113192257E-02 -1.90733949422E-01  5.00000000000E-01
  22   4   6    1 H     4.42113192257E-02  1.90733949422E-01  5.00000000000E-01
  23   4   7    1 H    -4.55788680774E-01  3.09266050578E-01  0.00000000000E+00
  24   4   8    1 H     4.55788680774E-01 -3.09266050578E-01  0.00000000000E+00

 NUMBER OF SYMMETRY OPERATORS         :   16
 *******************************************************************************
 * GEOMETRY EDITING - INPUT COORDINATES ARE GIVEN IN ANGSTROM         
 *******************************************************************************

 GEOMETRY NOW FULLY CONSISTENT WITH THE GROUP

 GCALCO - MAX INDICES DIRECT LATTICE VECTOR    12    12    21
 NO.OF VECTORS CREATED 6999 STARS  537 RMAX   141.24969 BOHR

 GEOMETRY FOR WAVE FUNCTION - DIMENSIONALITY OF THE SYSTEM    3
 (NON PERIODIC DIRECTION: LATTICE PARAMETER FORMALLY SET TO 500)
 *******************************************************************************
 LATTICE PARAMETERS (ANGSTROMS AND DEGREES) - BOHR = 0.5291772083 ANGSTROM
 PRIMITIVE CELL - CENTRING CODE 1/0 VOLUME=   247.868824 - DENSITY  0.965 g/cm^3
         A              B              C           ALPHA      BETA       GAMMA 
     7.53742684     7.53742684     4.36290429    90.000000  90.000000  90.000000
 *******************************************************************************
 ATOMS IN THE ASYMMETRIC UNIT    4 - ATOMS IN THE UNIT CELL:   24
     ATOM                 X/A                 Y/B                 Z/C    
 *******************************************************************************
      1 T   8 O     1.809139021285E-01 -1.809139021285E-01 -5.000000000000E-01
      2 F   8 O    -1.809139021285E-01  1.809139021285E-01 -5.000000000000E-01
      3 F   8 O    -3.190860978715E-01 -3.190860978715E-01  0.000000000000E+00
      4 F   8 O     3.190860978715E-01  3.190860978715E-01  0.000000000000E+00
      5 T   8 O     1.743125835413E-01  1.743125835413E-01 -5.000000000000E-01
      6 F   8 O    -1.743125835413E-01 -1.743125835413E-01 -5.000000000000E-01
      7 F   8 O    -3.256874164587E-01  3.256874164587E-01  0.000000000000E+00
      8 F   8 O     3.256874164587E-01 -3.256874164587E-01  0.000000000000E+00
      9 T   1 H     2.356991438637E-01 -2.356991438637E-01 -3.174031352184E-01
     10 F   1 H    -2.356991438637E-01  2.356991438637E-01 -3.174031352184E-01
     11 F   1 H    -2.643008561363E-01 -2.643008561363E-01 -1.825968647816E-01
     12 F   1 H     2.643008561363E-01  2.643008561363E-01 -1.825968647816E-01
     13 F   1 H     2.356991438637E-01 -2.356991438637E-01  3.174031352184E-01
     14 F   1 H    -2.356991438637E-01  2.356991438637E-01  3.174031352184E-01
     15 F   1 H     2.643008561363E-01  2.643008561363E-01  1.825968647816E-01
     16 F   1 H    -2.643008561363E-01 -2.643008561363E-01  1.825968647816E-01
     17 T   1 H     1.907339494225E-01  4.421131922570E-02 -5.000000000000E-01
     18 F   1 H    -1.907339494225E-01 -4.421131922570E-02 -5.000000000000E-01
     19 F   1 H    -3.092660505775E-01  4.557886807743E-01  0.000000000000E+00
     20 F   1 H     3.092660505775E-01 -4.557886807743E-01  0.000000000000E+00
     21 F   1 H    -4.421131922570E-02 -1.907339494225E-01 -5.000000000000E-01
     22 F   1 H     4.421131922570E-02  1.907339494225E-01 -5.000000000000E-01
     23 F   1 H    -4.557886807743E-01  3.092660505775E-01  0.000000000000E+00
     24 F   1 H     4.557886807743E-01 -3.092660505775E-01  0.000000000000E+00

 T = ATOM BELONGING TO THE ASYMMETRIC UNIT

 ****   16 SYMMOPS - TRANSLATORS IN FRACTIONAL UNITS
 **** MATRICES AND TRANSLATORS IN THE CRYSTALLOGRAPHIC REFERENCE FRAME
   V INV                    ROTATION MATRICES                   TRANSLATORS
   1   1  1.00  0.00  0.00  0.00  1.00  0.00  0.00  0.00  1.00  0.00  0.00  0.00
   2   2 -1.00  0.00  0.00  0.00 -1.00  0.00  0.00  0.00  1.00  0.00  0.00  0.00
   3   3  1.00  0.00  0.00  0.00 -1.00  0.00  0.00  0.00 -1.00  0.50  0.50  0.50
   4   4 -1.00  0.00  0.00  0.00  1.00  0.00  0.00  0.00 -1.00  0.50  0.50  0.50
   5   5  0.00 -1.00  0.00 -1.00  0.00  0.00  0.00  0.00 -1.00  0.00  0.00  0.00
   6   6  0.00  1.00  0.00  1.00  0.00  0.00  0.00  0.00 -1.00  0.00  0.00  0.00
   7   8  0.00  1.00  0.00 -1.00  0.00  0.00  0.00  0.00  1.00  0.50  0.50  0.50
   8   7  0.00 -1.00  0.00  1.00  0.00  0.00  0.00  0.00  1.00  0.50  0.50  0.50
   9   9 -1.00  0.00  0.00  0.00 -1.00  0.00  0.00  0.00 -1.00  0.00  0.00  0.00
  10  10  1.00  0.00  0.00  0.00  1.00  0.00  0.00  0.00 -1.00  0.00  0.00  0.00
  11  11 -1.00  0.00  0.00  0.00  1.00  0.00  0.00  0.00  1.00  0.50  0.50  0.50
  12  12  1.00  0.00  0.00  0.00 -1.00  0.00  0.00  0.00  1.00  0.50  0.50  0.50
  13  13  0.00  1.00  0.00  1.00  0.00  0.00  0.00  0.00  1.00  0.00  0.00  0.00
  14  14  0.00 -1.00  0.00 -1.00  0.00  0.00  0.00  0.00  1.00  0.00  0.00  0.00
  15  16  0.00 -1.00  0.00  1.00  0.00  0.00  0.00  0.00 -1.00  0.50  0.50  0.50
  16  15  0.00  1.00  0.00 -1.00  0.00  0.00  0.00  0.00 -1.00  0.50  0.50  0.50

 DIRECT LATTICE VECTORS CARTESIAN COMPONENTS (ANGSTROM)
          X                    Y                    Z
   0.753742684000E+01   0.000000000000E+00   0.000000000000E+00
   0.000000000000E+00   0.753742684000E+01   0.000000000000E+00
   0.000000000000E+00   0.000000000000E+00   0.436290429000E+01


 CARTESIAN COORDINATES - PRIMITIVE CELL
 *******************************************************************************
 *      ATOM          X(ANGSTROM)         Y(ANGSTROM)         Z(ANGSTROM)
 *******************************************************************************
    1     8 O     1.363625301632E+00 -1.363625301632E+00  2.181452145000E+00
    2     8 O    -1.363625301632E+00  1.363625301632E+00  2.181452145000E+00
    3     8 O    -2.405088118368E+00 -2.405088118368E+00  0.000000000000E+00
    4     8 O     2.405088118368E+00  2.405088118368E+00  0.000000000000E+00
    5     8 O     1.313868345734E+00  1.313868345734E+00  2.181452145000E+00
    6     8 O    -1.313868345734E+00 -1.313868345734E+00  2.181452145000E+00
    7     8 O    -2.454845074266E+00  2.454845074266E+00  0.000000000000E+00
    8     8 O     2.454845074266E+00 -2.454845074266E+00  0.000000000000E+00
    9     1 H     1.776565053123E+00 -1.776565053123E+00 -1.384799500304E+00
   10     1 H    -1.776565053123E+00  1.776565053123E+00 -1.384799500304E+00
   11     1 H    -1.992148366877E+00 -1.992148366877E+00 -7.966526446962E-01
   12     1 H     1.992148366877E+00  1.992148366877E+00 -7.966526446962E-01
   13     1 H     1.776565053123E+00 -1.776565053123E+00  1.384799500304E+00
   14     1 H    -1.776565053123E+00  1.776565053123E+00  1.384799500304E+00
   15     1 H     1.992148366877E+00  1.992148366877E+00  7.966526446962E-01
   16     1 H    -1.992148366877E+00 -1.992148366877E+00  7.966526446962E-01
   17     1 H     1.437643189676E+00  3.332395841636E-01  2.181452145000E+00
   18     1 H    -1.437643189676E+00 -3.332395841636E-01  2.181452145000E+00
   19     1 H    -2.331070230324E+00  3.435473835836E+00  0.000000000000E+00
   20     1 H     2.331070230324E+00 -3.435473835836E+00  0.000000000000E+00
   21     1 H    -3.332395841636E-01 -1.437643189676E+00  2.181452145000E+00
   22     1 H     3.332395841636E-01  1.437643189676E+00  2.181452145000E+00
   23     1 H    -3.435473835836E+00  2.331070230324E+00  0.000000000000E+00
   24     1 H     3.435473835836E+00 -2.331070230324E+00  0.000000000000E+00

 *******************************************************************************
 STARTING BASIS SET HANDLING 
 *******************************************************************************

 Loading internal basis set: DEF2-MSVP           

 Please cite in your publication:
 Fully Optimized Contracted Gaussian Basis Sets for Atoms Li to Kr. A. Schäfer, 
 H. Horn and R. Ahlrichs; J. Chem. Phys. 97, 2571 (1992).                       
                                                                                
                    
 S. Grimme, J. G. Brandenburg, C. Bannwarth, and A. Hansen, J. Chem. Phys., 143,
  054107 (2015).                                                                
                                                                                
                    

 *******************************************************************************
 LOCAL ATOMIC FUNCTIONS BASIS SET
 *******************************************************************************
   ATOM   X(AU)   Y(AU)   Z(AU)  N. TYPE  EXPONENT  S COEF   P COEF   D/F/G COEF
 *******************************************************************************
   1 O    2.577  -2.577   4.122
                                  1 S  
                                         6.773E+03 1.727E-03 0.000E+00 0.000E+00
                                         1.017E+03 1.325E-02 0.000E+00 0.000E+00
                                         2.313E+02 6.603E-02 0.000E+00 0.000E+00
                                         6.501E+01 2.353E-01 0.000E+00 0.000E+00
                                         2.050E+01 5.498E-01 0.000E+00 0.000E+00
                                  2 S  
                                         6.716E+00 1.000E+00 0.000E+00 0.000E+00
                                  3 S  
                                         1.147E+00 1.000E+00 0.000E+00 0.000E+00
                                  4 S  
                                         3.342E-01 1.000E+00 0.000E+00 0.000E+00
                           5-     7 P  
                                         1.769E+01 0.000E+00 4.359E-02 0.000E+00
                                         3.854E+00 0.000E+00 2.318E-01 0.000E+00
                                         1.047E+00 0.000E+00 5.146E-01 0.000E+00
                           8-    10 P  
                                         2.759E-01 0.000E+00 1.000E+00 0.000E+00
                          11-    15 D  
                                         8.000E-01 0.000E+00 0.000E+00 1.000E+00
   2 O   -2.577   2.577   4.122
   3 O   -4.545  -4.545   0.000
   4 O    4.545   4.545   0.000
   5 O    2.483   2.483   4.122
   6 O   -2.483  -2.483   4.122
   7 O   -4.639   4.639   0.000
   8 O    4.639  -4.639   0.000
   9 H    3.357  -3.357  -2.617
                                121 S  
                                         1.874E+01 1.968E-02 0.000E+00 0.000E+00
                                         2.826E+00 1.380E-01 0.000E+00 0.000E+00
                                         6.401E-01 4.783E-01 0.000E+00 0.000E+00
                                122 S  
                                         1.756E-01 1.000E+00 0.000E+00 0.000E+00
  10 H   -3.357   3.357  -2.617
  11 H   -3.765  -3.765  -1.505
  12 H    3.765   3.765  -1.505
  13 H    3.357  -3.357   2.617
  14 H   -3.357   3.357   2.617
  15 H    3.765   3.765   1.505
  16 H   -3.765  -3.765   1.505
  17 H    2.717   0.630   4.122
  18 H   -2.717  -0.630   4.122
  19 H   -4.405   6.492   0.000
  20 H    4.405  -6.492   0.000
  21 H   -0.630  -2.717   4.122
  22 H    0.630   2.717   4.122
  23 H   -6.492   4.405   0.000
  24 H    6.492  -4.405   0.000

 *******************************************************************************
 FINISHED BASIS SET HANDLING 
 *******************************************************************************

 INFORMATION **** SET_MPP **** PCRYSTAL CALCULATION
 INFORMATION **** READM2 **** NEW DEFAULT: FOCK/KS MATRIX MIXING SET TO 30 %
 INFORMATION **** READM2 **** NEW DEFAULT: FULL DIRECT SCF MODE
 INFORMATION **** READM2 **** NEW DEFAULT: COULOMB BIPOLAR BUFFER SET TO 32 Mb
 INFORMATION **** READM2 **** NEW DEFAULT: EXCHANGE BIPOLAR BUFFER SET TO 32 Mb

 *******************************************************************************
 NEW DEFAULT: DFT INTEGRATION GRID INCREASED TO XLGRID
 NEW DEFAULT: DIIS ACCELERATOR ACTIVE
 USE KEYWORD NODIIS TO TURN IT OFF
 *******************************************************************************

 INFORMATION **** RDDFTP **** HSE-3c calculation
 INFORMATION **** RDDFTP **** HSE screened hybrid functional combined with D3 and gCP

PLEASE CITE:
(1) HSE-3c Reference
 J. G. Brandenburg, E. Caldeweyer, and S. Grimme, 
 Phys. Chem. Chem. Phys. 18, 15519 (2016)
(2) DFT-D3 Reference
 S. Grimme, J. Antony, S. Ehrlich,
 and H. Krieg, J. Chem. Phys. 132, 154104 (2010)
(3) gCP Reference
 H. Kruse and S. Grimme J. Chem. Phys, 136, 154101 (2012)
 J. G. Brandenburg, M. Alessio, B. Civalleri, M. F. Peintinger
 T. Bredow, and S. Grimme, J. Phys. Chem. A, 117, 9282 (2013) 

 WARNING **** RDDFTP **** HSE3c-HJS ACTIVE
 RANGE SEPARATION - OMEGA:   0.110000000000000     
 WARNING **** RDDFTP **** HSE-3c has to be combined with def2-mSVP basis set
 WARNING **** RDDFTP **** Note: Harmonic frequencies are scaled by 0.95
 WARNING **** RDDFTP **** as recommended in original publication
 INFORMATION **** BIPOSIZE **** COULOMB BIPOLAR BUFFER SET TO    60000000
 INFORMATION **** EXCHSIZE **** EXCHANGE BIPOLAR BUFFER SIZE SET TO    40000000
 *******************************************************************************
 N. OF ATOMS PER CELL        24  COULOMB OVERLAP TOL         (T1) 10**   -6
 NUMBER OF SHELLS            88  COULOMB PENETRATION TOL     (T2) 10**   -6
 NUMBER OF AO               152  EXCHANGE OVERLAP TOL        (T3) 10**   -6
 N. OF ELECTRONS PER CELL    80  EXCHANGE PSEUDO OVP (F(G))  (T4) 10**   -6
 CORE ELECTRONS PER CELL     16  EXCHANGE PSEUDO OVP (P(G))  (T5) 10**  -12
 N. OF SYMMETRY OPERATORS    16  POLE ORDER IN MONO ZONE                  4
 *******************************************************************************
 TYPE OF CALCULATION :  RESTRICTED CLOSED SHELL
 KOHN-SHAM HAMILTONIAN

 (EXCHANGE)[CORRELATION] FUNCTIONAL:(HSE-3c)[PBEh-3c]

 RANGE-SEPARATED HYBRID FUNCTIONAL 
 OMEGA (SHORT-RANGE)[LONG-RANGE]:(    0.1100)[    0.0000]

 HYBRID EXCHANGE - PERCENTAGE OF FOCK EXCHANGE    42.0000

 CAPPA:IS1  2;IS2  2;IS3  2; K PTS MONK NET   6; SYMMOPS:K SPACE  16;G SPACE  16

 *******************************************************************************
 MAX NUMBER OF SCF CYCLES      50  CONVERGENCE ON DELTAP        10**-16
 WEIGHT OF F(I) IN F(I+1)      30% CONVERGENCE ON ENERGY        10**- 6
 S(K) EIGENV. THRESHOLD  10*10.**-4
 SHRINK. FACT.(MONKH.)    2  2  2  NUMBER OF K POINTS IN THE IBZ      6
 SHRINKING FACTOR(GILAT NET)    2  NUMBER OF K POINTS(GILAT NET)      6
 *******************************************************************************
 *** K POINTS COORDINATES (OBLIQUE COORDINATES IN UNITS OF IS =  2)
   1-R(  0  0  0)   2-R(  1  0  0)   3-R(  1  1  0)   4-R(  0  0  1)
   5-R(  1  0  1)   6-R(  1  1  1)

 DIRECT LATTICE VECTORS COMPON. (A.U.)     RECIP. LATTICE VECTORS COMPON. (A.U.) 
        X            Y            Z              X            Y            Z
   14.2436725    0.0000000    0.0000000      0.4411212    0.0000000    0.0000000
    0.0000000   14.2436725    0.0000000      0.0000000    0.4411212    0.0000000
    0.0000000    0.0000000    8.2446943      0.0000000    0.0000000    0.7620883

 DISK SPACE FOR EIGENVECTORS (FTN 10)      138624 REALS

 SYMMETRY ADAPTION OF THE BLOCH FUNCTIONS ENABLED
 TTTTTTTTTTTTTTTTTTTTTTTTTTTTTT gordsh1     TELAPSE        0.14 TCPU        0.04

 MATRIX SIZE: P(G)   74064, F(G)   12484, P(G) IRR    3681, F(G) IRR    1466
 MAX G-VECTOR INDEX FOR 1- AND 2-ELECTRON INTEGRALS  75

 TTTTTTTTTTTTTTTTTTTTTTTTTTTTTT INPUT       TELAPSE        0.14 TCPU        0.04

 NEIGHBORS OF THE NON-EQUIVALENT ATOMS

 N = NUMBER OF NEIGHBORS AT DISTANCE R
    ATOM  N     R/ANG      R/AU   NEIGHBORS (ATOM LABELS AND CELL INDICES)
   1 O    2     0.9878     1.8666    9 H    0 0 1   13 H    0 0 0
   1 O    2     1.6985     3.2097   17 H    0 0 0   21 H    0 0 0
   1 O    2     2.6721     5.0496    8 O    0 0 0    8 O    0 0 1
   1 O    2     2.6780     5.0606    5 O    0 0 0    6 O    0 0 0
   1 O    2     2.9848     5.6404   18 H    0 0 0   22 H    0 0 0
   1 O    4     3.1603     5.9720   20 H    0 0 0   20 H    0 0 1   24 H    0 0 1
                                    24 H    0 0 0

   5 O    2     0.9884     1.8678   17 H    0 0 0   22 H    0 0 0
   5 O    2     1.6846     3.1834   12 H    0 0 1   15 H    0 0 0
   5 O    2     2.6721     5.0496    4 O    0 0 0    4 O    0 0 1
   5 O    2     2.6780     5.0606    1 O    0 0 0    2 O    0 0 0
   5 O    2     3.1288     5.9125   12 H    0 0 0   15 H    0 0 1
   5 O    2     3.2068     6.0600   18 H    0 0 0   21 H    0 0 0

   9 H    1     0.9878     1.8666    1 O    0 0-1
   9 H    1     1.5933     3.0109   13 H    0 0-1
   9 H    1     1.6846     3.1834    8 O    0 0 0
   9 H    2     2.2309     4.2159   20 H    0 0 0   24 H    0 0 0
   9 H    2     2.2805     4.3096   17 H    0 0-1   21 H    0 0-1
   9 H    1     2.7696     5.2338   13 H    0 0 0

  17 H    1     0.9884     1.8678    5 O    0 0 0
  17 H    1     1.5619     2.9515   22 H    0 0 0
  17 H    1     1.6985     3.2097    1 O    0 0 0
  17 H    2     2.2309     4.2159   12 H    0 0 1   15 H    0 0 0
  17 H    2     2.2805     4.3096    9 H    0 0 1   13 H    0 0 0
  17 H    1     2.5044     4.7326   21 H    0 0 0


 SYMMETRY ALLOWED INTERNAL DEGREE(S) OF FREEDOM:   6
 TTTTTTTTTTTTTTTTTTTTTTTTTTTTTT SYMM        TELAPSE        0.17 TCPU        0.07
 TTTTTTTTTTTTTTTTTTTTTTTTTTTTTT INT_SCREEN  TELAPSE        0.17 TCPU        0.07

 DFT PARAMETERS

     ATOM       ELECTRONS   NET CHARGE   R(ANGSTROM)
   1   8  O       8.0000      0.0000     0.74000000
   9   1  H       1.0000      0.0000     1.11000000

 SIZE OF GRID=      38580
 TTTTTTTTTTTTTTTTTTTTTTTTTTTTTT MAKE_GRID2  TELAPSE        1.03 TCPU        0.93
 BECKE WEIGHT FUNCTION
 RADSAFE =     2.00
 TOLERANCES - DENSITY:10**- 6; POTENTIAL:10**- 9; GRID WGT:10**-14

 RADIAL INTEGRATION  - INTERVALS (POINTS,UPPER LIMIT):            1( 75,  4.0*R)

 ANGULAR INTEGRATION - INTERVALS (ACCURACY LEVEL [N. POINTS] UPPER LIMIT):
  1(  4[  86]   0.2)  2(  8[ 194]   0.5)  3( 12[ 350]   0.9)  4( 16[ 974]   3.5)
  5( 12[ 350]9999.0)
 TTTTTTTTTTTTTTTTTTTTTTTTTTTTTT INT_CALC    TELAPSE        1.05 TCPU        0.95
 EEEEEEEEEE INT_CALC TERMINATION  DATE 25 03 2019 TIME 17:52:05.3

 *******************************************************************************
 !drive by JGB                                                                   
 CRYSTAL - SCF - TYPE OF CALCULATION :  RESTRICTED CLOSED SHELL
 *******************************************************************************

 CAPPA:IS1  2;IS2  2;IS3  2; K PTS MONK NET   6; SYMMOPS:K SPACE  16;G SPACE  16

 TTTTTTTTTTTTTTTTTTTTTTTTTTTTTT SDIK        TELAPSE        1.06 TCPU        0.96

 AAAAAAAAAAAAAAAAAAAAAAAAAAAAAAAAAAAAAAAAAAAAAAAAAAAAAAAAAAAAAAAAAAAAAAAAAAAAAAA
         ATOMIC WAVEFUNCTION(S)


 NUCLEAR CHARGE  8.0  SYMMETRY SPECIES            S    P
 N. ELECTRONS    8.0  NUMBER OF PRIMITIVE GTOS    8    4
                      NUMBER OF CONTRACTED GTOS   4    2
                      NUMBER OF CLOSED SHELLS     2    0
                      OPEN SHELL OCCUPATION       0    4

  ZNUC SCFIT  TOTAL HF ENERGY   KINETIC ENERGY   VIRIAL THEOREM ACCURACY
   8.0  12   -7.477373220E+01  7.477365593E+01 -2.000001020E+00  3.8E-06

 NUCLEAR CHARGE  1.0  SYMMETRY SPECIES            S
 N. ELECTRONS    1.0  NUMBER OF PRIMITIVE GTOS    4
                      NUMBER OF CONTRACTED GTOS   2
                      NUMBER OF CLOSED SHELLS     0
                      OPEN SHELL OCCUPATION       1

  ZNUC SCFIT  TOTAL HF ENERGY   KINETIC ENERGY   VIRIAL THEOREM ACCURACY
   1.0   1   -4.977266687E-01  5.190767460E-01 -1.958869132E+00  1.8E-16

 AAAAAAAAAAAAAAAAAAAAAAAAAAAAAAAAAAAAAAAAAAAAAAAAAAAAAAAAAAAAAAAAAAAAAAAAAAAAAAA

 CHARGE NORMALIZATION FACTOR   1.00000000
 TOTAL ATOMIC CHARGES:
   8.0000000   8.0000000   8.0000000   8.0000000   8.0000000   8.0000000
   8.0000000   8.0000000   1.0000000   1.0000000   1.0000000   1.0000000
   1.0000000   1.0000000   1.0000000   1.0000000   1.0000000   1.0000000
   1.0000000   1.0000000   1.0000000   1.0000000   1.0000000   1.0000000
 TTTTTTTTTTTTTTTTTTTTTTTTTTTTTT MOQGAD      TELAPSE        1.08 TCPU        0.98
 TTTTTTTTTTTTTTTTTTTTTTTTTTTTTT SHELLXN     TELAPSE        1.84 TCPU        1.70
 TTTTTTTTTTTTTTTTTTTTTTTTTTTTTT MONMO3      TELAPSE        2.02 TCPU        1.88
 NUMERICALLY INTEGRATED DENSITY     80.0000184200
 TTTTTTTTTTTTTTTTTTTTTTTTTTTTTT NUMDFT      TELAPSE        2.10 TCPU        1.96
 CYC   0 ETOT(AU) -6.106716349147E+02 DETOT -6.11E+02 tst  0.00E+00 PX  1.00E+00
 TTTTTTTTTTTTTTTTTTTTTTTTTTTTTT DIIS        TELAPSE        2.10 TCPU        1.96
 TTTTTTTTTTTTTTTTTTTTTTTTTTTTTT FDIK        TELAPSE        2.18 TCPU        2.03
 INSULATING STATE
 TOP OF VALENCE BANDS -    BAND     40; K    4; EIG -4.1846779E-01 AU
 TOP OF VALENCE BANDS -    BAND     40; K    1; EIG -4.1867919E-01 AU
 BOTTOM OF VIRTUAL BANDS - BAND     41; K    1; EIG -4.1025021E-02 AU
 INDIRECT ENERGY BAND GAP:  10.2707 eV
 TTTTTTTTTTTTTTTTTTTTTTTTTTTTTT PDIG        TELAPSE        2.19 TCPU        2.04
 CHARGE NORMALIZATION FACTOR   1.00000000
 TOTAL ATOMIC CHARGES:
   9.0833969   9.0833969   9.0833969   9.0833969   9.0699212   9.0699212
   9.0699212   9.0699212   0.4601650   0.4601650   0.4601650   0.4601650
   0.4601650   0.4601650   0.4601650   0.4601650   0.4631759   0.4631759
   0.4631759   0.4631759   0.4631759   0.4631759   0.4631759   0.4631759
 TTTTTTTTTTTTTTTTTTTTTTTTTTTTTT MOQGAD      TELAPSE        2.19 TCPU        2.04
 TTTTTTTTTTTTTTTTTTTTTTTTTTTTTT SHELLXN     TELAPSE        2.94 TCPU        2.79
 TTTTTTTTTTTTTTTTTTTTTTTTTTTTTT MONMO3      TELAPSE        3.00 TCPU        2.84
 NUMERICALLY INTEGRATED DENSITY     80.0000185656
 TTTTTTTTTTTTTTTTTTTTTTTTTTTTTT NUMDFT      TELAPSE        3.14 TCPU        2.98
 CYC   1 ETOT(AU) -6.101909272082E+02 DETOT  4.81E-01 tst  0.00E+00 PX  1.00E+00
 TTTTTTTTTTTTTTTTTTTTTTTTTTTTTT DIIS        TELAPSE        3.16 TCPU        3.00
 DIIS TEST: 0.57805E+00 AT SCF   CYCLE   1 - MIX   30 %
 TTTTTTTTTTTTTTTTTTTTTTTTTTTTTT FDIK        TELAPSE        3.16 TCPU        3.00
 INSULATING STATE
 TOP OF VALENCE BANDS -    BAND     40; K    1; EIG -3.1743674E-01 AU
 BOTTOM OF VIRTUAL BANDS - BAND     41; K    1; EIG  2.3806813E-02 AU
 DIRECT ENERGY BAND GAP:   9.2857 eV
 TTTTTTTTTTTTTTTTTTTTTTTTTTTTTT PDIG        TELAPSE        3.17 TCPU        3.01
 CHARGE NORMALIZATION FACTOR   1.00000000
 TOTAL ATOMIC CHARGES:
   8.8773819   8.8773819   8.8773819   8.8773819   8.8720537   8.8720537
   8.8720537   8.8720537   0.5605698   0.5605698   0.5605698   0.5605698
   0.5605698   0.5605698   0.5605698   0.5605698   0.5647124   0.5647124
   0.5647124   0.5647124   0.5647124   0.5647124   0.5647124   0.5647124
 TTTTTTTTTTTTTTTTTTTTTTTTTTTTTT MOQGAD      TELAPSE        3.17 TCPU        3.01
 TTTTTTTTTTTTTTTTTTTTTTTTTTTTTT SHELLXN     TELAPSE        3.92 TCPU        3.76
 TTTTTTTTTTTTTTTTTTTTTTTTTTTTTT MONMO3      TELAPSE        3.97 TCPU        3.82
 NUMERICALLY INTEGRATED DENSITY     80.0000205124
 TTTTTTTTTTTTTTTTTTTTTTTTTTTTTT NUMDFT      TELAPSE        4.11 TCPU        3.96
 CYC   2 ETOT(AU) -6.103528362384E+02 DETOT -1.62E-01 tst  3.03E-03 PX  1.19E-01
 TTTTTTTTTTTTTTTTTTTTTTTTTTTTTT DIIS        TELAPSE        4.14 TCPU        3.96
 DIIS TEST: 0.11887E+00 AT SCF   CYCLE   2 - DIIS ACTIVE - HISTORY:     2 CYCLES
 TTTTTTTTTTTTTTTTTTTTTTTTTTTTTT FDIK        TELAPSE        4.14 TCPU        3.96
 INSULATING STATE
 TOP OF VALENCE BANDS -    BAND     40; K    4; EIG -3.5928649E-01 AU
 TOP OF VALENCE BANDS -    BAND     40; K    1; EIG -3.5943870E-01 AU
 BOTTOM OF VIRTUAL BANDS - BAND     41; K    1; EIG  2.3142269E-02 AU
 INDIRECT ENERGY BAND GAP:  10.4064 eV
 TTTTTTTTTTTTTTTTTTTTTTTTTTTTTT PDIG        TELAPSE        4.15 TCPU        3.96
 CHARGE NORMALIZATION FACTOR   1.00000000
 TOTAL ATOMIC CHARGES:
   8.9485942   8.9485942   8.9485942   8.9485942   8.9389876   8.9389876
   8.9389876   8.9389876   0.5257753   0.5257753   0.5257753   0.5257753
   0.5257753   0.5257753   0.5257753   0.5257753   0.5304338   0.5304338
   0.5304338   0.5304338   0.5304338   0.5304338   0.5304338   0.5304338
 TTTTTTTTTTTTTTTTTTTTTTTTTTTTTT MOQGAD      TELAPSE        4.15 TCPU        3.97
 TTTTTTTTTTTTTTTTTTTTTTTTTTTTTT SHELLXN     TELAPSE        4.90 TCPU        4.71
 TTTTTTTTTTTTTTTTTTTTTTTTTTTTTT MONMO3      TELAPSE        4.96 TCPU        4.77
 NUMERICALLY INTEGRATED DENSITY     80.0000198673
 TTTTTTTTTTTTTTTTTTTTTTTTTTTTTT NUMDFT      TELAPSE        5.09 TCPU        4.90
 CYC   3 ETOT(AU) -6.103939364599E+02 DETOT -4.11E-02 tst  3.13E-04 PX  4.03E-02
 TTTTTTTTTTTTTTTTTTTTTTTTTTTTTT DIIS        TELAPSE        5.09 TCPU        4.91
 DIIS TEST: 0.23454E-03 AT SCF   CYCLE   3 - DIIS ACTIVE - HISTORY:     3 CYCLES
 TTTTTTTTTTTTTTTTTTTTTTTTTTTTTT FDIK        TELAPSE        5.10 TCPU        4.91
 INSULATING STATE
 TOP OF VALENCE BANDS -    BAND     40; K    1; EIG -3.5718974E-01 AU
 BOTTOM OF VIRTUAL BANDS - BAND     41; K    1; EIG  2.5136335E-02 AU
 DIRECT ENERGY BAND GAP:  10.4036 eV
 TTTTTTTTTTTTTTTTTTTTTTTTTTTTTT PDIG        TELAPSE        5.10 TCPU        4.91
 CHARGE NORMALIZATION FACTOR   1.00000000
 TOTAL ATOMIC CHARGES:
   8.9454451   8.9454451   8.9454451   8.9454451   8.9390972   8.9390972
   8.9390972   8.9390972   0.5268214   0.5268214   0.5268214   0.5268214
   0.5268214   0.5268214   0.5268214   0.5268214   0.5309075   0.5309075
   0.5309075   0.5309075   0.5309075   0.5309075   0.5309075   0.5309075
 TTTTTTTTTTTTTTTTTTTTTTTTTTTTTT MOQGAD      TELAPSE        5.10 TCPU        4.91
 TTTTTTTTTTTTTTTTTTTTTTTTTTTTTT SHELLXN     TELAPSE        5.85 TCPU        5.66
 TTTTTTTTTTTTTTTTTTTTTTTTTTTTTT MONMO3      TELAPSE        5.91 TCPU        5.72
 NUMERICALLY INTEGRATED DENSITY     80.0000199221
 TTTTTTTTTTTTTTTTTTTTTTTTTTTTTT NUMDFT      TELAPSE        6.05 TCPU        5.86
 CYC   4 ETOT(AU) -6.103940031390E+02 DETOT -6.67E-05 tst  1.09E-06 PX  1.82E-03
 TTTTTTTTTTTTTTTTTTTTTTTTTTTTTT DIIS        TELAPSE        6.05 TCPU        5.86
 DIIS TEST: 0.23100E-04 AT SCF   CYCLE   4 - DIIS ACTIVE - HISTORY:     4 CYCLES
 TTTTTTTTTTTTTTTTTTTTTTTTTTTTTT FDIK        TELAPSE        6.06 TCPU        5.86
 INSULATING STATE
 TOP OF VALENCE BANDS -    BAND     40; K    4; EIG -3.5745728E-01 AU
 TOP OF VALENCE BANDS -    BAND     40; K    1; EIG -3.5761719E-01 AU
 BOTTOM OF VIRTUAL BANDS - BAND     41; K    1; EIG  2.5308988E-02 AU
 INDIRECT ENERGY BAND GAP:  10.4156 eV
 TTTTTTTTTTTTTTTTTTTTTTTTTTTTTT PDIG        TELAPSE        6.06 TCPU        5.86
 CHARGE NORMALIZATION FACTOR   1.00000000
 TOTAL ATOMIC CHARGES:
   8.9473111   8.9473111   8.9473111   8.9473111   8.9372678   8.9372678
   8.9372678   8.9372678   0.5265014   0.5265014   0.5265014   0.5265014
   0.5265014   0.5265014   0.5265014   0.5265014   0.5312092   0.5312092
   0.5312092   0.5312092   0.5312092   0.5312092   0.5312092   0.5312092
 TTTTTTTTTTTTTTTTTTTTTTTTTTTTTT MOQGAD      TELAPSE        6.06 TCPU        5.87
 TTTTTTTTTTTTTTTTTTTTTTTTTTTTTT SHELLXN     TELAPSE        6.81 TCPU        6.61
 TTTTTTTTTTTTTTTTTTTTTTTTTTTTTT MONMO3      TELAPSE        6.87 TCPU        6.67
 NUMERICALLY INTEGRATED DENSITY     80.0000199123
 TTTTTTTTTTTTTTTTTTTTTTTTTTTTTT NUMDFT      TELAPSE        7.00 TCPU        6.81
 CYC   5 ETOT(AU) -6.103940050402E+02 DETOT -1.90E-06 tst  3.08E-07 PX  8.30E-04
 TTTTTTTTTTTTTTTTTTTTTTTTTTTTTT DIIS        TELAPSE        7.01 TCPU        6.81
 DIIS TEST: 0.15034E-04 AT SCF   CYCLE   5 - DIIS ACTIVE - HISTORY:     5 CYCLES
 TTTTTTTTTTTTTTTTTTTTTTTTTTTTTT FDIK        TELAPSE        7.01 TCPU        6.81
 INSULATING STATE
 TOP OF VALENCE BANDS -    BAND     40; K    1; EIG -3.5734627E-01 AU
 BOTTOM OF VIRTUAL BANDS - BAND     41; K    1; EIG  2.5331639E-02 AU
 DIRECT ENERGY BAND GAP:  10.4132 eV
 TTTTTTTTTTTTTTTTTTTTTTTTTTTTTT PDIG        TELAPSE        7.01 TCPU        6.81
 CHARGE NORMALIZATION FACTOR   1.00000000
 TOTAL ATOMIC CHARGES:
   8.9463800   8.9463800   8.9463800   8.9463800   8.9381922   8.9381922
   8.9381922   8.9381922   0.5266426   0.5266426   0.5266426   0.5266426
   0.5266426   0.5266426   0.5266426   0.5266426   0.5310713   0.5310713
   0.5310713   0.5310713   0.5310713   0.5310713   0.5310713   0.5310713
 TTTTTTTTTTTTTTTTTTTTTTTTTTTTTT MOQGAD      TELAPSE        7.02 TCPU        6.82
 TTTTTTTTTTTTTTTTTTTTTTTTTTTTTT SHELLXN     TELAPSE        7.76 TCPU        7.56
 TTTTTTTTTTTTTTTTTTTTTTTTTTTTTT MONMO3      TELAPSE        7.82 TCPU        7.62
 NUMERICALLY INTEGRATED DENSITY     80.0000199186
 TTTTTTTTTTTTTTTTTTTTTTTTTTTTTT NUMDFT      TELAPSE        7.95 TCPU        7.75
 CYC   6 ETOT(AU) -6.103940103509E+02 DETOT -5.31E-06 tst  5.24E-08 PX  4.34E-04
 TTTTTTTTTTTTTTTTTTTTTTTTTTTTTT DIIS        TELAPSE        7.97 TCPU        7.77
 DIIS TEST: 0.19001E-06 AT SCF   CYCLE   6 - DIIS ACTIVE - HISTORY:     6 CYCLES
 TTTTTTTTTTTTTTTTTTTTTTTTTTTTTT FDIK        TELAPSE        7.97 TCPU        7.77
 INSULATING STATE
 TOP OF VALENCE BANDS -    BAND     40; K    1; EIG -3.5733827E-01 AU
 BOTTOM OF VIRTUAL BANDS - BAND     41; K    1; EIG  2.5343751E-02 AU
 DIRECT ENERGY BAND GAP:  10.4133 eV
 TTTTTTTTTTTTTTTTTTTTTTTTTTTTTT PDIG        TELAPSE        7.98 TCPU        7.77
 CHARGE NORMALIZATION FACTOR   1.00000000
 TOTAL ATOMIC CHARGES:
   8.9463741   8.9463741   8.9463741   8.9463741   8.9381283   8.9381283
   8.9381283   8.9381283   0.5266576   0.5266576   0.5266576   0.5266576
   0.5266576   0.5266576   0.5266576   0.5266576   0.5310912   0.5310912
   0.5310912   0.5310912   0.5310912   0.5310912   0.5310912   0.5310912
 TTTTTTTTTTTTTTTTTTTTTTTTTTTTTT MOQGAD      TELAPSE        7.98 TCPU        7.78
 TTTTTTTTTTTTTTTTTTTTTTTTTTTTTT SHELLXN     TELAPSE        8.72 TCPU        8.52
 TTTTTTTTTTTTTTTTTTTTTTTTTTTTTT MONMO3      TELAPSE        8.78 TCPU        8.57
 NUMERICALLY INTEGRATED DENSITY     80.0000199194
 TTTTTTTTTTTTTTTTTTTTTTTTTTTTTT NUMDFT      TELAPSE        8.91 TCPU        8.71
 CYC   7 ETOT(AU) -6.103940103947E+02 DETOT -4.39E-08 tst  4.93E-10 PX  3.55E-05
 TTTTTTTTTTTTTTTTTTTTTTTTTTTTTT DIIS        TELAPSE        8.92 TCPU        8.71
 DIIS TEST: 0.10284E-08 AT SCF   CYCLE   7 - DIIS ACTIVE - HISTORY:     7 CYCLES
 TTTTTTTTTTTTTTTTTTTTTTTTTTTTTT FDIK        TELAPSE        8.95 TCPU        8.71
 INSULATING STATE
 TOP OF VALENCE BANDS -    BAND     40; K    1; EIG -3.5733693E-01 AU
 BOTTOM OF VIRTUAL BANDS - BAND     41; K    1; EIG  2.5345375E-02 AU
 DIRECT ENERGY BAND GAP:  10.4133 eV
 TTTTTTTTTTTTTTTTTTTTTTTTTTTTTT PDIG        TELAPSE        8.95 TCPU        8.71
 CHARGE NORMALIZATION FACTOR   1.00000000
 TOTAL ATOMIC CHARGES:
   8.9463708   8.9463708   8.9463708   8.9463708   8.9381217   8.9381217
   8.9381217   8.9381217   0.5266587   0.5266587   0.5266587   0.5266587
   0.5266587   0.5266587   0.5266587   0.5266587   0.5310950   0.5310950
   0.5310950   0.5310950   0.5310950   0.5310950   0.5310950   0.5310950
 TTTTTTTTTTTTTTTTTTTTTTTTTTTTTT MOQGAD      TELAPSE        8.96 TCPU        8.72
 TTTTTTTTTTTTTTTTTTTTTTTTTTTTTT SHELLXN     TELAPSE        9.68 TCPU        9.44
 +++ ENERGIES IN A.U. +++
 ::: EXT EL-POLE                                  -5.0273383574227E+02
 ::: EXT EL-SPHEROPOLE                             6.3245317273468E+00
 ::: BIELET ZONE E-E                               6.8326401240248E+02
 ::: TOTAL E-E                                     1.8685470838755E+02
 ::: TOTAL E-N + N-E                              -1.2606041920356E+03
 ::: TOTAL N-N                                    -9.7377341734360E+01
 ::: KINETIC ENERGY                                6.0653258159265E+02
 ::: PSEUDO TOTAL   ENERGY                        -5.6459424378971E+02
 ::: VIRIAL COEFFICIENT                            1.0358102443681E+00
 TTTTTTTTTTTTTTTTTTTTTTTTTTTTTT MONMO3      TELAPSE        9.74 TCPU        9.50
 NUMERICALLY INTEGRATED DENSITY     80.0000199195
 TTTTTTTTTTTTTTTTTTTTTTTTTTTTTT NUMDFT      TELAPSE        9.87 TCPU        9.63
 CYC   8 ETOT(AU) -6.103940103961E+02 DETOT -1.44E-09 tst  1.63E-11 PX  3.55E-05

 == SCF ENDED - CONVERGENCE ON ENERGY      E(AU) -6.1039401039615E+02 CYCLES   8


 ENERGY EXPRESSION=HARTREE+FOCK EXCH*0.00000+(HSE-3c     EXCH)*1.00000+PBEh-3c    CORR


 TOTAL ENERGY(DFT)(AU)(  8) -6.1039401039615E+02 DE-1.4E-09 tester 1.6E-11
 TTTTTTTTTTTTTTTTTTTTTTTTTTTTTT EDFT        TELAPSE        9.87 TCPU        9.63
 
 INFORMATION **** DFTD3 ENERGY **** CALCULATE DFTD3 ENERGY

           DFT-D V3(BJ)
 DF                                         hse3c     
 parameters
 s6       :    1.0000
 s8       :    0.0000
 a1       :    0.4411
 a2       :    4.5182
 k1 k3    :   16.0000   -4.0000
 Cutoff   :   50.2022
 CN-Cutoff:   21.1671
 
 Edisp /kcal,au:   -12.4337 -0.01981439

 E6    /kcal :   -13.1879
 E8    /kcal :     0.0000
 E6(ABC) "   :   0.754169
 
 INFORMATION **** DFTD3 ENERGY **** NORMAL TERMINATION OF DFTD3 MODULE

 GCP ENERGY CALCULATION
  level           hse3c               basis:hse3c
  Nbf            152
  Atoms           24

  Parameters: 
  sigma     1.0000
  eta       1.4086
  alpha     0.2908
  beta      1.9526

  dmp_scal      4.0000
  dmp_exp       6.0000
 cutoffs: 
   distance [bohr] 60.0
   noise    [a.u.] 2.2E-16
 SR-damping   T
 ** gCP correction **
  Egcp:        0.1053074725 / (a.u.) ||      66.0814 / (kcal/mol)
 INFORMATION **** GCP **** NORMAL TERMINATION OF GCP MODULE

 *******************************************************************************

 DFT-D3-GCP DISPERSION AND COUNTERPOISE CORRECTION

 D3 DISPERSION ENERGY (AU)      -1.9814385961163E-02
 GCP ENERGY (AU)                 1.0530747250359E-01
 TOTAL ENERGY + DISP + GCP (AU) -6.1030851730960E+02

 *******************************************************************************

 EIGENVECTORS IN FORTRAN UNIT  8
 TTTTTTTTTTTTTTTTTTTTTTTTTTTTTT END         TELAPSE       10.40 TCPU       10.16
 EEEEEEEEEE TERMINATION  DATE 25 03 2019 TIME 17:52:14.7
NODE    0 CPU TIME =        10.156
NODE    1 CPU TIME =        10.077
NODE    2 CPU TIME =        10.201
NODE    3 CPU TIME =        10.068
NODE    4 CPU TIME =        10.242
NODE    5 CPU TIME =        10.165
NODE    6 CPU TIME =        10.135
NODE    7 CPU TIME =        10.214
    TOTAL CPU TIME =        81.258
