 PROCESS            5  OF            8  WORKING
 PROCESS            7  OF            8  WORKING
 PROCESS            1  OF            8  WORKING
 PROCESS            2  OF            8  WORKING
 PROCESS            0  OF            8  WORKING
 PROCESS            4  OF            8  WORKING

         
 *******************************************************************************
 *                                                                             *
 *                               CRYSTAL17                                     *
 *                      public : 1.0.1 - Feb 1st, 2017                         *
 *                       HTTP://WWW.CRYSTAL.UNITO.IT                           *
 *                                                                             *
 *                              MAIN AUTHORS                                   *
 *                                                                             *
 *  R. DOVESI(1,11), V.R. SAUNDERS(2), C. ROETTI(1,11), R. ORLANDO(1,11),      *
 *  C.M. ZICOVICH-WILSON(1,3), F. PASCALE(4), B. CIVALLERI(1,11),              *
 *  K. DOLL(5), N.M. HARRISON(2,6), I.J. BUSH(7), Ph. D'ARCO(8),               *
 *  M. LLUNELL(9), M. CAUSA'(10), Y. NOEL(8), L. MASCHIO(1,11), A. ERBA(1,11)  *
 *  M. RE'RAT(14), S. CASASSA(1,11)                                            *
 *                                                                             *
 *        CONTRIBUTIONS TO THE CODE HAVE ALSO BEEN GIVEN BY                    *
 *                                                                             *
 *  M. FERRABONE(1,11), M. DE LA PIERRE(1,11), M. FERRERO(1,11),               *
 *  J. BAIMA(1,11), E. ALBANESE(1,11), M.F. PEINTINGER(12), R. BAST(13),       *
 *  B. KIRTMAN(15), V. LACIVITA(1,11), R. DEMICHELIS(1,16)                     *
 *  G. BRANDEBURG(17), S. SALUSTRO(1,11), G. SANSONE(1,11)                     *
 *  M.T. RUGGIERO(18)                                                          *
 *                                                                             *
 * (1) THEORETICAL CHEMISTRY GROUP - UNIVERSITA' DI TORINO - TORINO (ITALY)    *

 * (2) COMPUTATIONAL SCIENCE & ENGINEERING DEPARTMENT - STFC DARESBURY (UK)    *
 * (3) UNIVERSIDAD AUTONOMA DEL ESTADO DE MORELOS - CUERNAVACA (MEXICO)        *
 * (4) UNIVERSITE' DE LORRAINE - NANCY (FRANCE)                                *
 * (5) UNIVERSITAET STUTTGART- STUTTGART (GERMANY)                             *
 * (6) IMPERIAL COLLEGE - LONDON (UK)                                          *
 * (7) OXFORD E-RESEARCH CENTRE - OXFORD (UK)                                  *
 * (8) UPMC - SORBONNE UNIVERSITES - PARIS (FRANCE)                            *
 * (9) UNIVERSIDAD DE BARCELONA - BARCELONA (SPAIN)                            *
 *(10) UNIVERSITA' DI NAPOLI "FEDERICO II" - NAPOLI (ITALY)                    *
 *(11) NIS - NANOSTRUCTURED INTERFACES AND SURFACES - TORINO (ITALY)           *
 *(12) MPI FUER CHEMISCHE ENERGIEKONVERSION - MUELHEIM AN DER RUHR (GERMANY)   *
 *(13) UNIVERSITY OF TROMSO - TROMSO (NORWAY)                                  *
 *(14) UNIVERSITE' DE PAU ET DES PAYS DE L'ADOUR - PAU (FRANCE)                *
 *(15) UNIVERSITY OF CALIFORNIA SANTA BARBARA - SANTA BARBARA (USA)            *
 *(16) CURTIN UNIVERSITY - PERTH (AUSTRALIA)                                   *
 *(17) UNIVERSITY COLLEGE LONDON - LONDON (UK)                                 *
 *(18) CAMBRIDGE UNIVERSITY - CAMBRIDGE (UK)                                   *
 *                                                                             *
 *******************************************************************************
 EEEEEEEEEE STARTING  DATE 25 03 2019 TIME 17:48:30.9
 PROCESS            6  OF            8  WORKING
 !drive by JGB                                                                   

 CRYSTAL CALCULATION
 (INPUT ACCORDING TO THE INTERNATIONAL TABLES FOR X-RAY CRYSTALLOGRAPHY)
 CRYSTAL FAMILY                       :  TRICLINIC   
 CRYSTAL CLASS  (GROTH - 1921)        :  TRICLINIC PEDIAL                     

 SPACE GROUP (NONCENTROSYMMETRIC)     :  P 1             

 LATTICE PARAMETERS  (ANGSTROMS AND DEGREES) - CONVENTIONAL CELL
        A           B           C        ALPHA        BETA       GAMMA
     2.93919     7.73093     4.33847    89.70560    88.18084    84.49423


 NUMBER OF IRREDUCIBLE ATOMS IN THE CONVENTIONAL CELL:   12

 INPUT COORDINATES

 ATOM AT. N.              COORDINATES
   1   8     9.246231919604E-01  1.606446072095E-01  2.424991279665E-01
   2   8     9.801675070443E-01  9.548925102454E-01  7.430363269069E-01
   3   8     6.152206885763E-01  4.631964805178E-01  7.431305550267E-01
   4   8     5.495004553797E-01  6.687053110165E-01  2.426076113671E-01
   5   1     9.450445824215E-01  8.613048704202E-02  5.739840131893E-02
   6   1     6.143727812322E-01  2.151124415687E-01  2.508385113822E-01
   7   1     9.582986988217E-01  2.953932199869E-02  5.576554090604E-01
   8   1     6.990981172106E-01  8.994544829833E-01  7.543125446962E-01
   9   1     9.255915200347E-01  4.092329889403E-01  7.478620900017E-01
  10   1     6.032220445152E-01  5.377305754197E-01  5.575106287779E-01
  11   1     2.396004472762E-01  7.232102531148E-01  2.557660826716E-01
  12   1     5.639299655227E-01  5.941305399436E-01  5.776271082420E-02

 *******************************************************************************

 << INFORMATION >>: FROM NOW ON, ALL COORDINATES REFER TO THE PRIMITIVE CELL

 *******************************************************************************

 LATTICE PARAMETERS  (ANGSTROMS AND DEGREES) - PRIMITIVE CELL
       A          B          C        ALPHA      BETA     GAMMA        VOLUME
    2.93919    7.73093    4.33847    89.70560  88.18084  84.49423     98.077103

 COORDINATES OF THE EQUIVALENT ATOMS (FRACTIONAL UNITS)

 N. ATOM EQUIV AT. N.          X                  Y                  Z

   1   1   1    8 O    -7.53768080396E-02  1.60644607209E-01  2.42499127966E-01

   2   2   1    8 O    -1.98324929557E-02 -4.51074897546E-02 -2.56963673093E-01

   3   3   1    8 O    -3.84779311424E-01  4.63196480518E-01 -2.56869444973E-01

   4   4   1    8 O    -4.50499544620E-01 -3.31294688984E-01  2.42607611367E-01

   5   5   1    1 H    -5.49554175785E-02  8.61304870420E-02  5.73984013189E-02

   6   6   1    1 H    -3.85627218768E-01  2.15112441569E-01  2.50838511382E-01

   7   7   1    1 H    -4.17013011783E-02  2.95393219987E-02 -4.42344590940E-01

   8   8   1    1 H    -3.00901882789E-01 -1.00545517017E-01 -2.45687455304E-01

   9   9   1    1 H    -7.44084799653E-02  4.09232988940E-01 -2.52137909998E-01

  10  10   1    1 H    -3.96777955485E-01 -4.62269424580E-01 -4.42489371222E-01

  11  11   1    1 H     2.39600447276E-01 -2.76789746885E-01  2.55766082672E-01

  12  12   1    1 H    -4.36070034477E-01 -4.05869460056E-01  5.77627108242E-02

 NUMBER OF SYMMETRY OPERATORS         :    1
 *******************************************************************************
 * GEOMETRY EDITING - INPUT COORDINATES ARE GIVEN IN ANGSTROM         
 *******************************************************************************

 GCALCO - MAX INDICES DIRECT LATTICE VECTOR    23     9    15
 NO.OF VECTORS CREATED 6999 STARS 3500 RMAX   103.40037 BOHR

 GEOMETRY FOR WAVE FUNCTION - DIMENSIONALITY OF THE SYSTEM    3
 (NON PERIODIC DIRECTION: LATTICE PARAMETER FORMALLY SET TO 500)
 *******************************************************************************
 LATTICE PARAMETERS (ANGSTROMS AND DEGREES) - BOHR = 0.5291772083 ANGSTROM
 PRIMITIVE CELL - CENTRING CODE 1/0 VOLUME=    98.077103 - DENSITY  1.220 g/cm^3
         A              B              C           ALPHA      BETA       GAMMA 
     2.93919181     7.73092781     4.33846619    89.705600  88.180841  84.494232
 *******************************************************************************
 ATOMS IN THE ASYMMETRIC UNIT   12 - ATOMS IN THE UNIT CELL:   12
     ATOM                 X/A                 Y/B                 Z/C    
 *******************************************************************************
      1 T   8 O    -7.537680803962E-02  1.606446072095E-01  2.424991279665E-01
      2 T   8 O    -1.983249295569E-02 -4.510748975461E-02 -2.569636730931E-01
      3 T   8 O    -3.847793114237E-01  4.631964805178E-01 -2.568694449733E-01
      4 T   8 O    -4.504995446203E-01 -3.312946889835E-01  2.426076113671E-01
      5 T   1 H    -5.495541757845E-02  8.613048704202E-02  5.739840131893E-02
      6 T   1 H    -3.856272187678E-01  2.151124415687E-01  2.508385113822E-01
      7 T   1 H    -4.170130117827E-02  2.953932199869E-02 -4.423445909396E-01
      8 T   1 H    -3.009018827894E-01 -1.005455170167E-01 -2.456874553038E-01
      9 T   1 H    -7.440847996525E-02  4.092329889403E-01 -2.521379099983E-01
     10 T   1 H    -3.967779554848E-01 -4.622694245803E-01 -4.424893712221E-01
     11 T   1 H     2.396004472762E-01 -2.767897468852E-01  2.557660826716E-01
     12 T   1 H    -4.360700344773E-01 -4.058694600564E-01  5.776271082420E-02

 T = ATOM BELONGING TO THE ASYMMETRIC UNIT

 ****    1 SYMMOPS - TRANSLATORS IN FRACTIONAL UNITS
 **** MATRICES AND TRANSLATORS IN THE CRYSTALLOGRAPHIC REFERENCE FRAME
   V INV                    ROTATION MATRICES                   TRANSLATORS
   1   1  1.00  0.00  0.00  0.00  1.00  0.00 -0.00  0.00  1.00  0.00  0.00  0.00

 DIRECT LATTICE VECTORS CARTESIAN COMPONENTS (ANGSTROM)
          X                    Y                    Z
   0.292563197930E+01   0.282003577360E+00   0.000000000000E+00
   0.000000000000E+00   0.773092781000E+01   0.000000000000E+00
   0.136214110429E+00   0.222920228502E-01   0.433627001738E+01


 CARTESIAN COORDINATES - PRIMITIVE CELL
 *******************************************************************************
 *      ATOM          X(ANGSTROM)         Y(ANGSTROM)         Z(ANGSTROM)
 *******************************************************************************
    1     8 O    -1.874929971028E-01  1.226081127987E+00  1.051541697841E+00
    2     8 O    -9.302465376346E-02 -3.600438210169E-01 -1.114263871189E+00
    3     8 O    -1.160711901419E+00  3.466703270877E+00 -1.113855272618E+00
    4     8 O     1.640682684867E+00 -2.400846015773E+00  1.052012111159E+00
    5     1 H    -1.529608549278E-01  6.516504796833E-01  2.488949666847E-01
    6     1 H    -1.094035578628E+00  1.559862199408E+00  1.087703516110E+00
    7     1 H    -1.822562352637E-01  2.067456940865E-01 -1.918125587041E+00
    8     1 H    -9.137942690893E-01 -8.676424114240E-01 -1.065367146080E+00
    9     1 H    -2.520365696336E-01  3.137146573381E+00 -1.093338059370E+00
   10     1 H     1.704532407980E+00 -3.413524758879E+00 -1.918753393439E+00
   11     1 H     7.358216802359E-01 -2.066571825089E+00  1.109070795751E+00
   12     1 H     1.657719637492E+00 -2.977429580652E+00  2.504747110694E-01

 *******************************************************************************
 STARTING BASIS SET HANDLING 
 *******************************************************************************

 Loading internal basis set: DEF2-MSVP           

 Please cite in your publication:
 Fully Optimized Contracted Gaussian Basis Sets for Atoms Li to Kr. A. Schäfer, 
 H. Horn and R. Ahlrichs; J. Chem. Phys. 97, 2571 (1992).                       
                                                                                
                    
 S. Grimme, J. G. Brandenburg, C. Bannwarth, and A. Hansen, J. Chem. Phys., 143,
  054107 (2015).                                                                
                                                                                
                    

 *******************************************************************************
 LOCAL ATOMIC FUNCTIONS BASIS SET
 *******************************************************************************
   ATOM   X(AU)   Y(AU)   Z(AU)  N. TYPE  EXPONENT  S COEF   P COEF   D/F/G COEF
 *******************************************************************************
   1 O   -0.354   2.317   1.987
                                  1 S  
                                         6.773E+03 1.727E-03 0.000E+00 0.000E+00
                                         1.017E+03 1.325E-02 0.000E+00 0.000E+00
                                         2.313E+02 6.603E-02 0.000E+00 0.000E+00
                                         6.501E+01 2.353E-01 0.000E+00 0.000E+00
                                         2.050E+01 5.498E-01 0.000E+00 0.000E+00
                                  2 S  
                                         6.716E+00 1.000E+00 0.000E+00 0.000E+00
                                  3 S  
                                         1.147E+00 1.000E+00 0.000E+00 0.000E+00
                                  4 S  
                                         3.342E-01 1.000E+00 0.000E+00 0.000E+00
                           5-     7 P  
                                         1.769E+01 0.000E+00 4.359E-02 0.000E+00
                                         3.854E+00 0.000E+00 2.318E-01 0.000E+00
                                         1.047E+00 0.000E+00 5.146E-01 0.000E+00
                           8-    10 P  
                                         2.759E-01 0.000E+00 1.000E+00 0.000E+00
                          11-    15 D  
                                         8.000E-01 0.000E+00 0.000E+00 1.000E+00
   2 O   -0.176  -0.680  -2.106
   3 O   -2.193   6.551  -2.105
   4 O    3.100  -4.537   1.988
   5 H   -0.289   1.231   0.470
                                 61 S  
                                         1.874E+01 1.968E-02 0.000E+00 0.000E+00
                                         2.826E+00 1.380E-01 0.000E+00 0.000E+00
                                         6.401E-01 4.783E-01 0.000E+00 0.000E+00
                                 62 S  
                                         1.756E-01 1.000E+00 0.000E+00 0.000E+00
   6 H   -2.067   2.948   2.055
   7 H   -0.344   0.391  -3.625
   8 H   -1.727  -1.640  -2.013
   9 H   -0.476   5.928  -2.066
  10 H    3.221  -6.451  -3.626
  11 H    1.391  -3.905   2.096
  12 H    3.133  -5.627   0.473

 *******************************************************************************
 FINISHED BASIS SET HANDLING 
 *******************************************************************************

 INFORMATION **** SET_MPP **** PCRYSTAL CALCULATION
 INFORMATION **** READM2 **** NEW DEFAULT: FOCK/KS MATRIX MIXING SET TO 30 %
 INFORMATION **** READM2 **** NEW DEFAULT: FULL DIRECT SCF MODE
 INFORMATION **** READM2 **** NEW DEFAULT: COULOMB BIPOLAR BUFFER SET TO 32 Mb
 INFORMATION **** READM2 **** NEW DEFAULT: EXCHANGE BIPOLAR BUFFER SET TO 32 Mb

 *******************************************************************************
 NEW DEFAULT: DFT INTEGRATION GRID INCREASED TO XLGRID
 NEW DEFAULT: DIIS ACCELERATOR ACTIVE
 USE KEYWORD NODIIS TO TURN IT OFF
 *******************************************************************************

 INFORMATION **** RDDFTP **** HSE-3c calculation
 INFORMATION **** RDDFTP **** HSE screened hybrid functional combined with D3 and gCP

PLEASE CITE:
(1) HSE-3c Reference
 J. G. Brandenburg, E. Caldeweyer, and S. Grimme, 
 Phys. Chem. Chem. Phys. 18, 15519 (2016)
(2) DFT-D3 Reference
 S. Grimme, J. Antony, S. Ehrlich,
 and H. Krieg, J. Chem. Phys. 132, 154104 (2010)
(3) gCP Reference
 H. Kruse and S. Grimme J. Chem. Phys, 136, 154101 (2012)
 J. G. Brandenburg, M. Alessio, B. Civalleri, M. F. Peintinger
 T. Bredow, and S. Grimme, J. Phys. Chem. A, 117, 9282 (2013) 

 WARNING **** RDDFTP **** HSE3c-HJS ACTIVE
 RANGE SEPARATION - OMEGA:   0.110000000000000     
 WARNING **** RDDFTP **** HSE-3c has to be combined with def2-mSVP basis set
 WARNING **** RDDFTP **** Note: Harmonic frequencies are scaled by 0.95
 WARNING **** RDDFTP **** as recommended in original publication
 INFORMATION **** BIPOSIZE **** COULOMB BIPOLAR BUFFER SET TO    60000000
 INFORMATION **** EXCHSIZE **** EXCHANGE BIPOLAR BUFFER SIZE SET TO    40000000
 *******************************************************************************
 N. OF ATOMS PER CELL        12  COULOMB OVERLAP TOL         (T1) 10**   -6
 NUMBER OF SHELLS            44  COULOMB PENETRATION TOL     (T2) 10**   -6
 NUMBER OF AO                76  EXCHANGE OVERLAP TOL        (T3) 10**   -6
 N. OF ELECTRONS PER CELL    40  EXCHANGE PSEUDO OVP (F(G))  (T4) 10**   -6
 CORE ELECTRONS PER CELL      8  EXCHANGE PSEUDO OVP (P(G))  (T5) 10**  -12
 N. OF SYMMETRY OPERATORS     1  POLE ORDER IN MONO ZONE                  4
 *******************************************************************************
 TYPE OF CALCULATION :  RESTRICTED CLOSED SHELL
 KOHN-SHAM HAMILTONIAN

 (EXCHANGE)[CORRELATION] FUNCTIONAL:(HSE-3c)[PBEh-3c]

 RANGE-SEPARATED HYBRID FUNCTIONAL 
 OMEGA (SHORT-RANGE)[LONG-RANGE]:(    0.1100)[    0.0000]

 HYBRID EXCHANGE - PERCENTAGE OF FOCK EXCHANGE    42.0000

 CAPPA:IS1  4;IS2  2;IS3  3; K PTS MONK NET  14; SYMMOPS:K SPACE   2;G SPACE   1

 *******************************************************************************
 MAX NUMBER OF SCF CYCLES      50  CONVERGENCE ON DELTAP        10**-16
 WEIGHT OF F(I) IN F(I+1)      30% CONVERGENCE ON ENERGY        10**- 6
 S(K) EIGENV. THRESHOLD  10*10.**-4
 SHRINK. FACT.(MONKH.)    4  2  3  NUMBER OF K POINTS IN THE IBZ     14
 SHRINKING FACTOR(GILAT NET)    4  NUMBER OF K POINTS(GILAT NET)     14
 *******************************************************************************
 *** K POINTS COORDINATES (OBLIQUE COORDINATES IN UNITS OF IS =  4)
   1-R(  0  0  0)   2-C(  1  0  0)   3-R(  2  0  0)   4-R(  0  1  0)
   5-C(  1  1  0)   6-R(  2  1  0)   7-C(  0  0  1)   8-C(  1  0  1)
   9-C(  2  0  1)  10-C(  3  0  1)  11-C(  0  1  1)  12-C(  1  1  1)
  13-C(  2  1  1)  14-C(  3  1  1)

 DIRECT LATTICE VECTORS COMPON. (A.U.)     RECIP. LATTICE VECTORS COMPON. (A.U.) 
        X            Y            Z              X            Y            Z
    5.5286432    0.5329095    0.0000000      1.1364787    0.0000000   -0.0356999
    0.0000000   14.6093363    0.0000000     -0.0414557    0.4300801   -0.0009087
    0.2574074    0.0421258    8.1943628      0.0000000    0.0000000    0.7667692

 DISK SPACE FOR EIGENVECTORS (FTN 10)      138624 REALS

 SYMMETRY ADAPTION OF THE BLOCH FUNCTIONS DISABLED
 PROCESS            3  OF            8  WORKING
 TTTTTTTTTTTTTTTTTTTTTTTTTTTTTT gordsh1     TELAPSE        0.14 TCPU        0.04

 MATRIX SIZE: P(G)   48564, F(G)    8488, P(G) IRR   25064, F(G) IRR    8704
 MAX G-VECTOR INDEX FOR 1- AND 2-ELECTRON INTEGRALS 177

 TTTTTTTTTTTTTTTTTTTTTTTTTTTTTT INPUT       TELAPSE        0.15 TCPU        0.04

 NEIGHBORS OF THE NON-EQUIVALENT ATOMS

 N = NUMBER OF NEIGHBORS AT DISTANCE R
    ATOM  N     R/ANG      R/AU   NEIGHBORS (ATOM LABELS AND CELL INDICES)
   1 O    1     0.9667     1.8268    6 H    0 0 0
   1 O    1     0.9876     1.8663    5 H    0 0 0
   1 O    1     1.6976     3.2079    7 H    0 0 1
   1 O    1     2.1112     3.9896    6 H    1 0 0
   1 O    1     2.6851     5.0741    2 O    0 0 1
   1 O    1     2.6862     5.0761    2 O    0 0 0

   2 O    1     0.9663     1.8260    8 H    0 0 0
   2 O    1     0.9876     1.8663    7 H    0 0 0
   2 O    1     1.6986     3.2099    5 H    0 0 0
   2 O    1     2.1175     4.0015    8 H    1 0 0
   2 O    1     2.6851     5.0741    1 O    0 0-1
   2 O    1     2.6862     5.0761    1 O    0 0 0

   3 O    1     0.9668     1.8270    9 H    0 0 0
   3 O    1     0.9874     1.8659   10 H   -1 1 0
   3 O    1     1.6978     3.2084   12 H   -1 1 0
   3 O    1     2.1077     3.9830    9 H   -1 0 0
   3 O    1     2.6846     5.0732    4 O   -1 1 0
   3 O    1     2.6850     5.0739    4 O   -1 1-1

   4 O    1     0.9663     1.8261   11 H    0 0 0
   4 O    1     0.9875     1.8661   12 H    0 0 0
   4 O    1     1.6987     3.2100   10 H    0 0 1
   4 O    1     2.1134     3.9938   11 H    1 0 0
   4 O    1     2.6846     5.0732    3 O    1-1 0
   4 O    1     2.6850     5.0739    3 O    1-1 1

   5 H    1     0.9876     1.8663    1 O    0 0 0
   5 H    1     1.5537     2.9361    6 H    0 0 0
   5 H    1     1.6986     3.2099    2 O    0 0 0
   5 H    1     2.1481     4.0594    8 H    0 0 0
   5 H    1     2.2124     4.1809    7 H    0 0 0
   5 H    1     2.2126     4.1812    7 H    0 0 1

   6 H    1     0.9667     1.8268    1 O    0 0 0
   6 H    1     1.5537     2.9361    5 H    0 0 0
   6 H    1     2.1112     3.9896    1 O   -1 0 0
   6 H    1     2.1539     4.0704    7 H    0 0 1
   6 H    1     2.4614     4.6514    5 H   -1 0 0
   6 H    1     2.8101     5.3104    7 H   -1 0 1

   7 H    1     0.9876     1.8663    2 O    0 0 0
   7 H    1     1.5546     2.9377    8 H    0 0 0
   7 H    1     1.6976     3.2079    1 O    0 0-1
   7 H    1     2.1539     4.0704    6 H    0 0-1
   7 H    1     2.2124     4.1809    5 H    0 0 0
   7 H    1     2.2126     4.1812    5 H    0 0-1

   8 H    1     0.9663     1.8260    2 O    0 0 0
   8 H    1     1.5546     2.9377    7 H    0 0 0
   8 H    1     2.1175     4.0015    2 O   -1 0 0
   8 H    1     2.1481     4.0594    5 H    0 0 0
   8 H    1     2.4838     4.6936    7 H   -1 0 0
   8 H    1     2.7527     5.2019   12 H   -1 0 0

   9 H    1     0.9668     1.8270    3 O    0 0 0
   9 H    1     1.5580     2.9441   10 H   -1 1 0
   9 H    1     2.1077     3.9830    3 O    1 0 0
   9 H    1     2.1490     4.0611   12 H   -1 1 0
   9 H    1     2.4295     4.5911   10 H    0 1 0
   9 H    1     2.8202     5.3295    6 H    0 0 0

  10 H    1     0.9874     1.8659    3 O    1-1 0
  10 H    1     1.5580     2.9441    9 H    1-1 0
  10 H    1     1.6987     3.2100    4 O    0 0-1
  10 H    1     2.1651     4.0914   11 H    0 0-1
  10 H    1     2.2131     4.1822   12 H    0 0 0
  10 H    1     2.2138     4.1834   12 H    0 0-1

  11 H    1     0.9663     1.8261    4 O    0 0 0
  11 H    1     1.5546     2.9377   12 H    0 0 0
  11 H    1     2.1134     3.9938    4 O   -1 0 0
  11 H    1     2.1651     4.0914   10 H    0 0 1
  11 H    1     2.4850     4.6959   12 H   -1 0 0
  11 H    1     2.7559     5.2078    7 H    0 0 1

  12 H    1     0.9875     1.8661    4 O    0 0 0
  12 H    1     1.5546     2.9377   11 H    0 0 0
  12 H    1     1.6978     3.2084    3 O    1-1 0
  12 H    1     2.1490     4.0611    9 H    1-1 0
  12 H    1     2.2131     4.1822   10 H    0 0 0
  12 H    1     2.2138     4.1834   10 H    0 0 1


 SYMMETRY ALLOWED INTERNAL DEGREE(S) OF FREEDOM:  33
 TTTTTTTTTTTTTTTTTTTTTTTTTTTTTT SYMM        TELAPSE        0.15 TCPU        0.04
 TTTTTTTTTTTTTTTTTTTTTTTTTTTTTT INT_SCREEN  TELAPSE        0.15 TCPU        0.04

 DFT PARAMETERS

     ATOM       ELECTRONS   NET CHARGE   R(ANGSTROM)
   1   8  O       8.0000      0.0000     0.74000000
   5   1  H       1.0000      0.0000     1.11000000

 SIZE OF GRID=     263710
 TTTTTTTTTTTTTTTTTTTTTTTTTTTTTT MAKE_GRID2  TELAPSE        5.14 TCPU        5.03
 BECKE WEIGHT FUNCTION
 RADSAFE =     2.00
 TOLERANCES - DENSITY:10**- 6; POTENTIAL:10**- 9; GRID WGT:10**-14

 RADIAL INTEGRATION  - INTERVALS (POINTS,UPPER LIMIT):            1( 75,  4.0*R)

 ANGULAR INTEGRATION - INTERVALS (ACCURACY LEVEL [N. POINTS] UPPER LIMIT):
  1(  4[  86]   0.2)  2(  8[ 194]   0.5)  3( 12[ 350]   0.9)  4( 16[ 974]   3.5)
  5( 12[ 350]9999.0)
 TTTTTTTTTTTTTTTTTTTTTTTTTTTTTT INT_CALC    TELAPSE        5.16 TCPU        5.05
 EEEEEEEEEE INT_CALC TERMINATION  DATE 25 03 2019 TIME 17:48:35.9

 *******************************************************************************
 !drive by JGB                                                                   
 CRYSTAL - SCF - TYPE OF CALCULATION :  RESTRICTED CLOSED SHELL
 *******************************************************************************

 CAPPA:IS1  4;IS2  2;IS3  3; K PTS MONK NET  14; SYMMOPS:K SPACE   2;G SPACE   1

 TTTTTTTTTTTTTTTTTTTTTTTTTTTTTT SDIK        TELAPSE        5.24 TCPU        5.09

 AAAAAAAAAAAAAAAAAAAAAAAAAAAAAAAAAAAAAAAAAAAAAAAAAAAAAAAAAAAAAAAAAAAAAAAAAAAAAAA
         ATOMIC WAVEFUNCTION(S)


 NUCLEAR CHARGE  8.0  SYMMETRY SPECIES            S    P
 N. ELECTRONS    8.0  NUMBER OF PRIMITIVE GTOS    8    4
                      NUMBER OF CONTRACTED GTOS   4    2
                      NUMBER OF CLOSED SHELLS     2    0
                      OPEN SHELL OCCUPATION       0    4

  ZNUC SCFIT  TOTAL HF ENERGY   KINETIC ENERGY   VIRIAL THEOREM ACCURACY
   8.0  12   -7.477373220E+01  7.477365593E+01 -2.000001020E+00  3.8E-06

 NUCLEAR CHARGE  1.0  SYMMETRY SPECIES            S
 N. ELECTRONS    1.0  NUMBER OF PRIMITIVE GTOS    4
                      NUMBER OF CONTRACTED GTOS   2
                      NUMBER OF CLOSED SHELLS     0
                      OPEN SHELL OCCUPATION       1

  ZNUC SCFIT  TOTAL HF ENERGY   KINETIC ENERGY   VIRIAL THEOREM ACCURACY
   1.0   1   -4.977266687E-01  5.190767460E-01 -1.958869132E+00  1.8E-16

 AAAAAAAAAAAAAAAAAAAAAAAAAAAAAAAAAAAAAAAAAAAAAAAAAAAAAAAAAAAAAAAAAAAAAAAAAAAAAAA

 CHARGE NORMALIZATION FACTOR   1.00000000
 TOTAL ATOMIC CHARGES:
   8.0000000   8.0000000   8.0000000   8.0000000   1.0000000   1.0000000
   1.0000000   1.0000000   1.0000000   1.0000000   1.0000000   1.0000000
 TTTTTTTTTTTTTTTTTTTTTTTTTTTTTT MOQGAD      TELAPSE        5.26 TCPU        5.11
 TTTTTTTTTTTTTTTTTTTTTTTTTTTTTT SHELLXN     TELAPSE       11.51 TCPU       11.35
 TTTTTTTTTTTTTTTTTTTTTTTTTTTTTT MONMO3      TELAPSE       12.09 TCPU       11.93
 NUMERICALLY INTEGRATED DENSITY     40.0000000450
 TTTTTTTTTTTTTTTTTTTTTTTTTTTTTT NUMDFT      TELAPSE       12.47 TCPU       12.32
 CYC   0 ETOT(AU) -3.052362389351E+02 DETOT -3.05E+02 tst  0.00E+00 PX  1.00E+00
 TTTTTTTTTTTTTTTTTTTTTTTTTTTTTT DIIS        TELAPSE       12.48 TCPU       12.32
 TTTTTTTTTTTTTTTTTTTTTTTTTTTTTT FDIK        TELAPSE       12.60 TCPU       12.42
 INSULATING STATE
 TOP OF VALENCE BANDS -    BAND     20; K   11; EIG -4.1691753E-01 AU
 TOP OF VALENCE BANDS -    BAND     20; K    1; EIG -4.1780969E-01 AU
 BOTTOM OF VIRTUAL BANDS - BAND     21; K    1; EIG -1.0051384E-01 AU
 INDIRECT ENERGY BAND GAP:   8.6098 eV
 TTTTTTTTTTTTTTTTTTTTTTTTTTTTTT PDIG        TELAPSE       12.60 TCPU       12.42
 CHARGE NORMALIZATION FACTOR   1.00000000
 TOTAL ATOMIC CHARGES:
   9.0689742   9.0694016   9.0692271   9.0701551   0.4691523   0.4617808
   0.4690341   0.4619319   0.4614093   0.4686530   0.4610881   0.4691924
 TTTTTTTTTTTTTTTTTTTTTTTTTTTTTT MOQGAD      TELAPSE       12.60 TCPU       12.42
 TTTTTTTTTTTTTTTTTTTTTTTTTTTTTT SHELLXN     TELAPSE       18.95 TCPU       18.77
 TTTTTTTTTTTTTTTTTTTTTTTTTTTTTT MONMO3      TELAPSE       19.55 TCPU       19.36
 NUMERICALLY INTEGRATED DENSITY     40.0000010781
 TTTTTTTTTTTTTTTTTTTTTTTTTTTTTT NUMDFT      TELAPSE       20.49 TCPU       20.30
 CYC   1 ETOT(AU) -3.050605462239E+02 DETOT  1.76E-01 tst  0.00E+00 PX  1.00E+00
 TTTTTTTTTTTTTTTTTTTTTTTTTTTTTT DIIS        TELAPSE       20.54 TCPU       20.36
 DIIS TEST: 0.44694E+00 AT SCF   CYCLE   1 - MIX   30 %
 TTTTTTTTTTTTTTTTTTTTTTTTTTTTTT FDIK        TELAPSE       20.56 TCPU       20.37
 INSULATING STATE
 TOP OF VALENCE BANDS -    BAND     20; K   11; EIG -3.1700178E-01 AU
 TOP OF VALENCE BANDS -    BAND     20; K    1; EIG -3.1814433E-01 AU
 BOTTOM OF VIRTUAL BANDS - BAND     21; K    1; EIG -4.1186889E-02 AU
 INDIRECT ENERGY BAND GAP:   7.5053 eV
 TTTTTTTTTTTTTTTTTTTTTTTTTTTTTT PDIG        TELAPSE       20.56 TCPU       20.37
 CHARGE NORMALIZATION FACTOR   1.00000000
 TOTAL ATOMIC CHARGES:
   8.8405232   8.8414532   8.8409334   8.8426931   0.5783296   0.5809104
   0.5782186   0.5808401   0.5800930   0.5784808   0.5794246   0.5781000
 TTTTTTTTTTTTTTTTTTTTTTTTTTTTTT MOQGAD      TELAPSE       20.56 TCPU       20.37
 TTTTTTTTTTTTTTTTTTTTTTTTTTTTTT SHELLXN     TELAPSE       26.92 TCPU       26.73
 TTTTTTTTTTTTTTTTTTTTTTTTTTTTTT MONMO3      TELAPSE       27.51 TCPU       27.32
 NUMERICALLY INTEGRATED DENSITY     39.9999997939
 TTTTTTTTTTTTTTTTTTTTTTTTTTTTTT NUMDFT      TELAPSE       28.40 TCPU       28.21
 CYC   2 ETOT(AU) -3.051503527420E+02 DETOT -8.98E-02 tst  3.33E-03 PX  1.25E-01
 TTTTTTTTTTTTTTTTTTTTTTTTTTTTTT DIIS        TELAPSE       28.41 TCPU       28.22
 DIIS TEST: 0.99971E-01 AT SCF   CYCLE   2 - DIIS ACTIVE - HISTORY:     2 CYCLES
 TTTTTTTTTTTTTTTTTTTTTTTTTTTTTT FDIK        TELAPSE       28.43 TCPU       28.23
 INSULATING STATE
 TOP OF VALENCE BANDS -    BAND     20; K   11; EIG -3.6646209E-01 AU
 TOP OF VALENCE BANDS -    BAND     20; K    1; EIG -3.6730931E-01 AU
 BOTTOM OF VIRTUAL BANDS - BAND     21; K    1; EIG -4.4582366E-02 AU
 INDIRECT ENERGY BAND GAP:   8.7588 eV
 TTTTTTTTTTTTTTTTTTTTTTTTTTTTTT PDIG        TELAPSE       28.43 TCPU       28.23
 CHARGE NORMALIZATION FACTOR   1.00000000
 TOTAL ATOMIC CHARGES:
   8.9183499   8.9188887   8.9187301   8.9197778   0.5381689   0.5434165
   0.5381536   0.5432665   0.5426760   0.5383514   0.5421530   0.5380676
 TTTTTTTTTTTTTTTTTTTTTTTTTTTTTT MOQGAD      TELAPSE       28.43 TCPU       28.23
 TTTTTTTTTTTTTTTTTTTTTTTTTTTTTT SHELLXN     TELAPSE       34.79 TCPU       34.58
 TTTTTTTTTTTTTTTTTTTTTTTTTTTTTT MONMO3      TELAPSE       35.37 TCPU       35.17
 NUMERICALLY INTEGRATED DENSITY     40.0000003385
 TTTTTTTTTTTTTTTTTTTTTTTTTTTTTT NUMDFT      TELAPSE       36.26 TCPU       36.05
 CYC   3 ETOT(AU) -3.051769716613E+02 DETOT -2.66E-02 tst  3.44E-04 PX  4.41E-02
 TTTTTTTTTTTTTTTTTTTTTTTTTTTTTT DIIS        TELAPSE       36.26 TCPU       36.06
 DIIS TEST: 0.42992E-03 AT SCF   CYCLE   3 - DIIS ACTIVE - HISTORY:     3 CYCLES
 TTTTTTTTTTTTTTTTTTTTTTTTTTTTTT FDIK        TELAPSE       36.29 TCPU       36.06
 INSULATING STATE
 TOP OF VALENCE BANDS -    BAND     20; K   11; EIG -3.6375912E-01 AU
 TOP OF VALENCE BANDS -    BAND     20; K    1; EIG -3.6465242E-01 AU
 BOTTOM OF VIRTUAL BANDS - BAND     21; K    1; EIG -4.1801711E-02 AU
 INDIRECT ENERGY BAND GAP:   8.7609 eV
 TTTTTTTTTTTTTTTTTTTTTTTTTTTTTT PDIG        TELAPSE       36.29 TCPU       36.06
 CHARGE NORMALIZATION FACTOR   1.00000000
 TOTAL ATOMIC CHARGES:
   8.9145311   8.9154363   8.9149320   8.9164915   0.5396680   0.5456283
   0.5395717   0.5453980   0.5448717   0.5398039   0.5442216   0.5394458
 TTTTTTTTTTTTTTTTTTTTTTTTTTTTTT MOQGAD      TELAPSE       36.29 TCPU       36.07
 TTTTTTTTTTTTTTTTTTTTTTTTTTTTTT SHELLXN     TELAPSE       42.64 TCPU       42.42
 TTTTTTTTTTTTTTTTTTTTTTTTTTTTTT MONMO3      TELAPSE       43.23 TCPU       43.01
 NUMERICALLY INTEGRATED DENSITY     40.0000003201
 TTTTTTTTTTTTTTTTTTTTTTTTTTTTTT NUMDFT      TELAPSE       44.12 TCPU       43.90
 CYC   4 ETOT(AU) -3.051770636614E+02 DETOT -9.20E-05 tst  1.12E-06 PX  1.63E-03
 TTTTTTTTTTTTTTTTTTTTTTTTTTTTTT DIIS        TELAPSE       44.13 TCPU       43.90
 DIIS TEST: 0.84597E-05 AT SCF   CYCLE   4 - DIIS ACTIVE - HISTORY:     4 CYCLES
 TTTTTTTTTTTTTTTTTTTTTTTTTTTTTT FDIK        TELAPSE       44.14 TCPU       43.91
 INSULATING STATE
 TOP OF VALENCE BANDS -    BAND     20; K   11; EIG -3.6358134E-01 AU
 TOP OF VALENCE BANDS -    BAND     20; K    1; EIG -3.6448272E-01 AU
 BOTTOM OF VIRTUAL BANDS - BAND     21; K    1; EIG -4.1471197E-02 AU
 INDIRECT ENERGY BAND GAP:   8.7651 eV
 TTTTTTTTTTTTTTTTTTTTTTTTTTTTTT PDIG        TELAPSE       44.14 TCPU       43.91
 CHARGE NORMALIZATION FACTOR   1.00000000
 TOTAL ATOMIC CHARGES:
   8.9146233   8.9151572   8.9150265   8.9160336   0.5396931   0.5455994
   0.5396735   0.5454951   0.5448479   0.5398675   0.5443874   0.5395955
 TTTTTTTTTTTTTTTTTTTTTTTTTTTTTT MOQGAD      TELAPSE       44.14 TCPU       43.91
 TTTTTTTTTTTTTTTTTTTTTTTTTTTTTT SHELLXN     TELAPSE       50.48 TCPU       50.25
 TTTTTTTTTTTTTTTTTTTTTTTTTTTTTT MONMO3      TELAPSE       51.07 TCPU       50.84
 NUMERICALLY INTEGRATED DENSITY     40.0000003223
 TTTTTTTTTTTTTTTTTTTTTTTTTTTTTT NUMDFT      TELAPSE       51.96 TCPU       51.72
 CYC   5 ETOT(AU) -3.051770654547E+02 DETOT -1.79E-06 tst  3.18E-08 PX  2.72E-04
 TTTTTTTTTTTTTTTTTTTTTTTTTTTTTT DIIS        TELAPSE       51.96 TCPU       51.73
 DIIS TEST: 0.38643E-06 AT SCF   CYCLE   5 - DIIS ACTIVE - HISTORY:     5 CYCLES
 TTTTTTTTTTTTTTTTTTTTTTTTTTTTTT FDIK        TELAPSE       52.74 TCPU       52.49
 INSULATING STATE
 TOP OF VALENCE BANDS -    BAND     20; K   11; EIG -3.6354893E-01 AU
 TOP OF VALENCE BANDS -    BAND     20; K    1; EIG -3.6443802E-01 AU
 BOTTOM OF VIRTUAL BANDS - BAND     21; K    1; EIG -4.1448577E-02 AU
 INDIRECT ENERGY BAND GAP:   8.7648 eV
 TTTTTTTTTTTTTTTTTTTTTTTTTTTTTT PDIG        TELAPSE       52.75 TCPU       52.49
 CHARGE NORMALIZATION FACTOR   1.00000000
 TOTAL ATOMIC CHARGES:
   8.9143078   8.9152476   8.9146945   8.9163048   0.5397759   0.5457347
   0.5396762   0.5454926   0.5449818   0.5399271   0.5443138   0.5395432
 TTTTTTTTTTTTTTTTTTTTTTTTTTTTTT MOQGAD      TELAPSE       52.75 TCPU       52.50
 TTTTTTTTTTTTTTTTTTTTTTTTTTTTTT SHELLXN     TELAPSE       59.08 TCPU       58.82
 TTTTTTTTTTTTTTTTTTTTTTTTTTTTTT MONMO3      TELAPSE       59.67 TCPU       59.42
 NUMERICALLY INTEGRATED DENSITY     40.0000003226
 TTTTTTTTTTTTTTTTTTTTTTTTTTTTTT NUMDFT      TELAPSE       60.56 TCPU       60.31
 CYC   6 ETOT(AU) -3.051770654861E+02 DETOT -3.14E-08 tst  3.81E-09 PX  1.48E-04
 TTTTTTTTTTTTTTTTTTTTTTTTTTTTTT DIIS        TELAPSE       60.56 TCPU       60.31
 DIIS TEST: 0.25303E-06 AT SCF   CYCLE   6 - DIIS ACTIVE - HISTORY:     6 CYCLES
 TTTTTTTTTTTTTTTTTTTTTTTTTTTTTT FDIK        TELAPSE       60.59 TCPU       60.32
 INSULATING STATE
 TOP OF VALENCE BANDS -    BAND     20; K   11; EIG -3.6354281E-01 AU
 TOP OF VALENCE BANDS -    BAND     20; K    1; EIG -3.6443740E-01 AU
 BOTTOM OF VIRTUAL BANDS - BAND     21; K    1; EIG -4.1443883E-02 AU
 INDIRECT ENERGY BAND GAP:   8.7648 eV
 TTTTTTTTTTTTTTTTTTTTTTTTTTTTTT PDIG        TELAPSE       60.59 TCPU       60.32
 CHARGE NORMALIZATION FACTOR   1.00000000
 TOTAL ATOMIC CHARGES:
   8.9144140   8.9151429   8.9148191   8.9161158   0.5397544   0.5457001
   0.5396957   0.5455305   0.5449436   0.5399123   0.5443838   0.5395878
 TTTTTTTTTTTTTTTTTTTTTTTTTTTTTT MOQGAD      TELAPSE       60.59 TCPU       60.32
 TTTTTTTTTTTTTTTTTTTTTTTTTTTTTT SHELLXN     TELAPSE       66.93 TCPU       66.66
 +++ ENERGIES IN A.U. +++
 ::: EXT EL-POLE                                  -3.4018272600035E+02
 ::: EXT EL-SPHEROPOLE                             4.0300736201904E+00
 ::: BIELET ZONE E-E                               4.1653848863462E+02
 ::: TOTAL E-E                                     8.0385836254459E+01
 ::: TOTAL E-N + N-E                              -6.0286383663678E+02
 ::: TOTAL N-N                                    -6.3064927739789E+01
 ::: KINETIC ENERGY                                3.0324005236519E+02
 ::: PSEUDO TOTAL   ENERGY                        -2.8230287575691E+02
 ::: VIRIAL COEFFICIENT                            1.0357568601766E+00
 TTTTTTTTTTTTTTTTTTTTTTTTTTTTTT MONMO3      TELAPSE       67.52 TCPU       67.25
 NUMERICALLY INTEGRATED DENSITY     40.0000003224
 TTTTTTTTTTTTTTTTTTTTTTTTTTTTTT NUMDFT      TELAPSE       68.42 TCPU       68.14
 CYC   7 ETOT(AU) -3.051770655353E+02 DETOT -4.92E-08 tst  9.75E-10 PX  1.48E-04

 == SCF ENDED - CONVERGENCE ON ENERGY      E(AU) -3.0517706553531E+02 CYCLES   7


 ENERGY EXPRESSION=HARTREE+FOCK EXCH*0.00000+(HSE-3c     EXCH)*1.00000+PBEh-3c    CORR


 TOTAL ENERGY(DFT)(AU)(  7) -3.0517706553531E+02 DE-4.9E-08 tester 9.7E-10
 TTTTTTTTTTTTTTTTTTTTTTTTTTTTTT EDFT        TELAPSE       68.42 TCPU       68.14
 
 INFORMATION **** DFTD3 ENERGY **** CALCULATE DFTD3 ENERGY

           DFT-D V3(BJ)
 DF                                         hse3c     
 parameters
 s6       :    1.0000
 s8       :    0.0000
 a1       :    0.4411
 a2       :    4.5182
 k1 k3    :   16.0000   -4.0000
 Cutoff   :   50.2022
 CN-Cutoff:   21.1671
 
 Edisp /kcal,au:    -8.0344 -0.01280360

 E6    /kcal :    -8.6692
 E8    /kcal :     0.0000
 E6(ABC) "   :   0.634770
 
 INFORMATION **** DFTD3 ENERGY **** NORMAL TERMINATION OF DFTD3 MODULE

 GCP ENERGY CALCULATION
  level           hse3c               basis:hse3c
  Nbf             76
  Atoms           12

  Parameters: 
  sigma     1.0000
  eta       1.4086
  alpha     0.2908
  beta      1.9526

  dmp_scal      4.0000
  dmp_exp       6.0000
 cutoffs: 
   distance [bohr] 60.0
   noise    [a.u.] 2.2E-16
 SR-damping   T
 ** gCP correction **
  Egcp:        0.0473637965 / (a.u.) ||      29.7212 / (kcal/mol)
 INFORMATION **** GCP **** NORMAL TERMINATION OF GCP MODULE

 *******************************************************************************

 DFT-D3-GCP DISPERSION AND COUNTERPOISE CORRECTION

 D3 DISPERSION ENERGY (AU)      -1.2803601400189E-02
 GCP ENERGY (AU)                 4.7363796453990E-02
 TOTAL ENERGY + DISP + GCP (AU) -3.0514250534025E+02

 *******************************************************************************

 EIGENVECTORS IN FORTRAN UNIT 10
 TTTTTTTTTTTTTTTTTTTTTTTTTTTTTT END         TELAPSE       68.89 TCPU       68.61
 EEEEEEEEEE TERMINATION  DATE 25 03 2019 TIME 17:49:39.6
NODE    0 CPU TIME =        68.606
NODE    1 CPU TIME =        68.673
NODE    2 CPU TIME =        68.673
NODE    3 CPU TIME =        68.571
NODE    4 CPU TIME =        67.894
NODE    5 CPU TIME =        68.680
NODE    6 CPU TIME =        68.638
NODE    7 CPU TIME =        68.644
    TOTAL CPU TIME =       548.378
