 PROCESS            2  OF            8  WORKING
 PROCESS            6  OF            8  WORKING
 PROCESS            4  OF            8  WORKING
 PROCESS            5  OF            8  WORKING
 PROCESS            3  OF            8  WORKING
 PROCESS            7  OF            8  WORKING
 PROCESS            0  OF            8  WORKING
 PROCESS            1  OF            8  WORKING

         
 *******************************************************************************
 *                                                                             *
 *                               CRYSTAL17                                     *
 *                      public : 1.0.1 - Feb 1st, 2017                         *
 *                       HTTP://WWW.CRYSTAL.UNITO.IT                           *
 *                                                                             *
 *                              MAIN AUTHORS                                   *
 *                                                                             *
 *  R. DOVESI(1,11), V.R. SAUNDERS(2), C. ROETTI(1,11), R. ORLANDO(1,11),      *
 *  C.M. ZICOVICH-WILSON(1,3), F. PASCALE(4), B. CIVALLERI(1,11),              *
 *  K. DOLL(5), N.M. HARRISON(2,6), I.J. BUSH(7), Ph. D'ARCO(8),               *
 *  M. LLUNELL(9), M. CAUSA'(10), Y. NOEL(8), L. MASCHIO(1,11), A. ERBA(1,11)  *
 *  M. RE'RAT(14), S. CASASSA(1,11)                                            *
 *                                                                             *
 *        CONTRIBUTIONS TO THE CODE HAVE ALSO BEEN GIVEN BY                    *
 *                                                                             *
 *  M. FERRABONE(1,11), M. DE LA PIERRE(1,11), M. FERRERO(1,11),               *
 *  J. BAIMA(1,11), E. ALBANESE(1,11), M.F. PEINTINGER(12), R. BAST(13),       *
 *  B. KIRTMAN(15), V. LACIVITA(1,11), R. DEMICHELIS(1,16)                     *
 *  G. BRANDEBURG(17), S. SALUSTRO(1,11), G. SANSONE(1,11)                     *
 *  M.T. RUGGIERO(18)                                                          *
 *                                                                             *
 * (1) THEORETICAL CHEMISTRY GROUP - UNIVERSITA' DI TORINO - TORINO (ITALY)    *

 * (2) COMPUTATIONAL SCIENCE & ENGINEERING DEPARTMENT - STFC DARESBURY (UK)    *
 * (3) UNIVERSIDAD AUTONOMA DEL ESTADO DE MORELOS - CUERNAVACA (MEXICO)        *
 * (4) UNIVERSITE' DE LORRAINE - NANCY (FRANCE)                                *
 * (5) UNIVERSITAET STUTTGART- STUTTGART (GERMANY)                             *
 * (6) IMPERIAL COLLEGE - LONDON (UK)                                          *
 * (7) OXFORD E-RESEARCH CENTRE - OXFORD (UK)                                  *
 * (8) UPMC - SORBONNE UNIVERSITES - PARIS (FRANCE)                            *
 * (9) UNIVERSIDAD DE BARCELONA - BARCELONA (SPAIN)                            *
 *(10) UNIVERSITA' DI NAPOLI "FEDERICO II" - NAPOLI (ITALY)                    *
 *(11) NIS - NANOSTRUCTURED INTERFACES AND SURFACES - TORINO (ITALY)           *
 *(12) MPI FUER CHEMISCHE ENERGIEKONVERSION - MUELHEIM AN DER RUHR (GERMANY)   *
 *(13) UNIVERSITY OF TROMSO - TROMSO (NORWAY)                                  *
 *(14) UNIVERSITE' DE PAU ET DES PAYS DE L'ADOUR - PAU (FRANCE)                *
 *(15) UNIVERSITY OF CALIFORNIA SANTA BARBARA - SANTA BARBARA (USA)            *
 *(16) CURTIN UNIVERSITY - PERTH (AUSTRALIA)                                   *
 *(17) UNIVERSITY COLLEGE LONDON - LONDON (UK)                                 *
 *(18) CAMBRIDGE UNIVERSITY - CAMBRIDGE (UK)                                   *
 *                                                                             *
 *******************************************************************************
 EEEEEEEEEE STARTING  DATE 25 03 2019 TIME 17:49:53.8
 !drive by JGB                                                                   

 CRYSTAL CALCULATION
 (INPUT ACCORDING TO THE INTERNATIONAL TABLES FOR X-RAY CRYSTALLOGRAPHY)
 CRYSTAL FAMILY                       :  MONOCLINIC  
 CRYSTAL CLASS  (GROTH - 1921)        :  MONOCLINIC DOMATIC                   

 SPACE GROUP (NONCENTROSYMMETRIC)     :  P M             

 LATTICE PARAMETERS  (ANGSTROMS AND DEGREES) - CONVENTIONAL CELL
        A           B           C        ALPHA        BETA       GAMMA
     4.51046     7.79400     4.47890    90.00000    89.74930    90.00000


 NUMBER OF IRREDUCIBLE ATOMS IN THE CONVENTIONAL CELL:   13

 INPUT COORDINATES

 ATOM AT. N.              COORDINATES
   1   8     7.528379075422E-01  0.000000000000E+00  8.005298152553E-01
   2   8     1.653284668711E-01  5.000000000000E-01  6.996936468217E-01
   3   8     2.513862348566E-01  0.000000000000E+00  1.392203331384E-01
   4   8     8.276946600175E-01  5.000000000000E-01  2.021096165914E-01
   5   8     5.057397502792E-01  2.504065984504E-01  4.638257740734E-01
   6   1     7.026564958180E-01  1.001786090876E-01  6.772209990127E-01
   7   1     4.253378351844E-02  5.000000000000E-01  8.817025286801E-01
   8   1     3.013509112641E-02  5.000000000000E-01  5.279140571658E-01
   9   1     7.012762053602E-02  0.000000000000E+00  1.826943787451E-02
  10   1     4.211544182934E-01  0.000000000000E+00  9.164265277960E-04
  11   1     7.058775151468E-01  3.996886971339E-01  2.553090398479E-01
  12   1     3.775253239027E-01  3.270813537621E-01  5.818328618154E-01
  13   1     3.767518234721E-01  1.737347475611E-01  3.481383942229E-01

 *******************************************************************************

 << INFORMATION >>: FROM NOW ON, ALL COORDINATES REFER TO THE PRIMITIVE CELL

 *******************************************************************************

 LATTICE PARAMETERS  (ANGSTROMS AND DEGREES) - PRIMITIVE CELL
       A          B          C        ALPHA      BETA     GAMMA        VOLUME
    4.51046    7.79400    4.47890    90.00000  89.74930  90.00000    157.451861

 COORDINATES OF THE EQUIVALENT ATOMS (FRACTIONAL UNITS)

 N. ATOM EQUIV AT. N.          X                  Y                  Z

   1   1   1    8 O    -2.47162092458E-01  0.00000000000E+00 -1.99470184745E-01

   2   2   1    8 O     1.65328466871E-01 -5.00000000000E-01 -3.00306353178E-01

   3   3   1    8 O     2.51386234857E-01  0.00000000000E+00  1.39220333138E-01

   4   4   1    8 O    -1.72305339982E-01 -5.00000000000E-01  2.02109616591E-01

   5   5   1    8 O    -4.94260249721E-01  2.50406598450E-01  4.63825774073E-01
   6   5   2    8 O    -4.94260249721E-01 -2.50406598450E-01  4.63825774073E-01

   7   6   1    1 H    -2.97343504182E-01  1.00178609088E-01 -3.22779000987E-01
   8   6   2    1 H    -2.97343504182E-01 -1.00178609088E-01 -3.22779000987E-01

   9   7   1    1 H     4.25337835184E-02 -5.00000000000E-01 -1.18297471320E-01

  10   8   1    1 H     3.01350911264E-02 -5.00000000000E-01 -4.72085942834E-01

  11   9   1    1 H     7.01276205360E-02  0.00000000000E+00  1.82694378745E-02

  12  10   1    1 H     4.21154418293E-01  0.00000000000E+00  9.16426527796E-04

  13  11   1    1 H    -2.94122484853E-01  3.99688697134E-01  2.55309039848E-01
  14  11   2    1 H    -2.94122484853E-01 -3.99688697134E-01  2.55309039848E-01

  15  12   1    1 H     3.77525323903E-01  3.27081353762E-01 -4.18167138185E-01
  16  12   2    1 H     3.77525323903E-01 -3.27081353762E-01 -4.18167138185E-01

  17  13   1    1 H     3.76751823472E-01  1.73734747561E-01  3.48138394223E-01
  18  13   2    1 H     3.76751823472E-01 -1.73734747561E-01  3.48138394223E-01

 NUMBER OF SYMMETRY OPERATORS         :    2
 *******************************************************************************
 * GEOMETRY EDITING - INPUT COORDINATES ARE GIVEN IN ANGSTROM         
 *******************************************************************************

 GEOMETRY NOW FULLY CONSISTENT WITH THE GROUP

 GCALCO - MAX INDICES DIRECT LATTICE VECTOR    17    10    18
 NO.OF VECTORS CREATED 6999 STARS 1916 RMAX   121.23559 BOHR

 GEOMETRY FOR WAVE FUNCTION - DIMENSIONALITY OF THE SYSTEM    3
 (NON PERIODIC DIRECTION: LATTICE PARAMETER FORMALLY SET TO 500)
 *******************************************************************************
 LATTICE PARAMETERS (ANGSTROMS AND DEGREES) - BOHR = 0.5291772083 ANGSTROM
 PRIMITIVE CELL - CENTRING CODE 1/0 VOLUME=   157.451861 - DENSITY  1.140 g/cm^3
         A              B              C           ALPHA      BETA       GAMMA 
     4.51045877     7.79399562     4.47889706    90.000000  89.749295  90.000000
 *******************************************************************************
 ATOMS IN THE ASYMMETRIC UNIT   13 - ATOMS IN THE UNIT CELL:   18
     ATOM                 X/A                 Y/B                 Z/C    
 *******************************************************************************
      1 T   8 O    -2.471620924578E-01 -1.540743955510E-33 -1.994701847447E-01
      2 T   8 O     1.653284668711E-01 -5.000000000000E-01 -3.003063531783E-01
      3 T   8 O     2.513862348566E-01  1.540743955510E-33  1.392203331384E-01
      4 T   8 O    -1.723053399825E-01 -5.000000000000E-01  2.021096165914E-01
      5 T   8 O    -4.942602497208E-01  2.504065984504E-01  4.638257740734E-01
      6 F   8 O    -4.942602497208E-01 -2.504065984504E-01  4.638257740734E-01
      7 T   1 H    -2.973435041820E-01  1.001786090876E-01 -3.227790009873E-01
      8 F   1 H    -2.973435041820E-01 -1.001786090876E-01 -3.227790009873E-01
      9 T   1 H     4.253378351844E-02 -5.000000000000E-01 -1.182974713199E-01
     10 T   1 H     3.013509112641E-02 -5.000000000000E-01 -4.720859428342E-01
     11 T   1 H     7.012762053602E-02  1.925929944387E-34  1.826943787451E-02
     12 T   1 H     4.211544182934E-01 -3.912045199537E-34  9.164265277960E-04
     13 T   1 H    -2.941224848532E-01  3.996886971339E-01  2.553090398479E-01
     14 F   1 H    -2.941224848532E-01 -3.996886971339E-01  2.553090398479E-01
     15 T   1 H     3.775253239027E-01  3.270813537621E-01 -4.181671381846E-01
     16 F   1 H     3.775253239027E-01 -3.270813537621E-01 -4.181671381846E-01
     17 T   1 H     3.767518234721E-01  1.737347475611E-01  3.481383942229E-01
     18 F   1 H     3.767518234721E-01 -1.737347475611E-01  3.481383942229E-01

 T = ATOM BELONGING TO THE ASYMMETRIC UNIT

 ****    2 SYMMOPS - TRANSLATORS IN FRACTIONAL UNITS
 **** MATRICES AND TRANSLATORS IN THE CRYSTALLOGRAPHIC REFERENCE FRAME
   V INV                    ROTATION MATRICES                   TRANSLATORS
   1   1  1.00  0.00  0.00  0.00  1.00  0.00  0.00  0.00  1.00  0.00  0.00  0.00
   2   2  1.00  0.00  0.00  0.00 -1.00  0.00  0.00  0.00  1.00  0.00  0.00  0.00

 DIRECT LATTICE VECTORS CARTESIAN COMPONENTS (ANGSTROM)
          X                    Y                    Z
   0.451045877000E+01   0.276185944768E-15   0.000000000000E+00
   0.000000000000E+00   0.779399562000E+01   0.000000000000E+00
   0.195979235091E-01   0.274253347412E-15   0.447885418332E+01


 CARTESIAN COORDINATES - PRIMITIVE CELL
 *******************************************************************************
 *      ATOM          X(ANGSTROM)         Y(ANGSTROM)         Z(ANGSTROM)
 *******************************************************************************
    1     8 O    -1.118723628961E+00 -1.229680618915E-16 -8.933978713920E-01
    2     8 O     7.398218523905E-01  3.896997810000E+00 -1.345028366211E+00
    3     8 O     1.136595677106E+00  1.076109871666E-16  6.235475714806E-01
    4     8 O    -7.732152030355E-01  3.896997810000E+00  9.052195017602E-01
    5     8 O    -2.220250455974E+00  1.951667931542E+00  2.077408008542E+00
    6     8 O    -2.220250455974E+00 -1.951667931542E+00  2.077408008542E+00
    7     1 H    -1.347481414312E+00  7.807916404464E-01 -1.445680078861E+00
    8     1 H    -1.347481414312E+00 -7.807916404464E-01 -1.445680078861E+00
    9     1 H     1.895284920978E-01  3.896997810000E+00 -5.298371242977E-01
   10     1 H     1.266711818585E-01  3.896997810000E+00 -2.114404099951E+00
   11     1 H     3.166657841119E-01  2.437871762452E-17  8.182614825121E-02
   12     1 H     1.899617599573E+00  1.165682639526E-16  4.104540787727E-03
   13     1 H    -1.321623814226E+00  3.115171954825E+00  1.143491961163E+00
   14     1 H    -1.321623814226E+00 -3.115171954825E+00  1.143491961163E+00
   15     1 H     1.694617200506E+00  2.549270638605E+00 -1.872909636186E+00
   16     1 H     1.694617200506E+00 -2.549270638605E+00 -1.872909636186E+00
   17     1 H     1.706146355914E+00  1.354087861533E+00  1.559261103341E+00
   18     1 H     1.706146355914E+00 -1.354087861533E+00  1.559261103341E+00

 *******************************************************************************
 STARTING BASIS SET HANDLING 
 *******************************************************************************

 Loading internal basis set: DEF2-MSVP           

 Please cite in your publication:
 Fully Optimized Contracted Gaussian Basis Sets for Atoms Li to Kr. A. Schäfer, 
 H. Horn and R. Ahlrichs; J. Chem. Phys. 97, 2571 (1992).                       
                                                                                
                    
 S. Grimme, J. G. Brandenburg, C. Bannwarth, and A. Hansen, J. Chem. Phys., 143,
  054107 (2015).                                                                
                                                                                
                    

 *******************************************************************************
 LOCAL ATOMIC FUNCTIONS BASIS SET
 *******************************************************************************
   ATOM   X(AU)   Y(AU)   Z(AU)  N. TYPE  EXPONENT  S COEF   P COEF   D/F/G COEF
 *******************************************************************************
   1 O   -2.114  -0.000  -1.688
                                  1 S  
                                         6.773E+03 1.727E-03 0.000E+00 0.000E+00
                                         1.017E+03 1.325E-02 0.000E+00 0.000E+00
                                         2.313E+02 6.603E-02 0.000E+00 0.000E+00
                                         6.501E+01 2.353E-01 0.000E+00 0.000E+00
                                         2.050E+01 5.498E-01 0.000E+00 0.000E+00
                                  2 S  
                                         6.716E+00 1.000E+00 0.000E+00 0.000E+00
                                  3 S  
                                         1.147E+00 1.000E+00 0.000E+00 0.000E+00
                                  4 S  
                                         3.342E-01 1.000E+00 0.000E+00 0.000E+00
                           5-     7 P  
                                         1.769E+01 0.000E+00 4.359E-02 0.000E+00
                                         3.854E+00 0.000E+00 2.318E-01 0.000E+00
                                         1.047E+00 0.000E+00 5.146E-01 0.000E+00
                           8-    10 P  
                                         2.759E-01 0.000E+00 1.000E+00 0.000E+00
                          11-    15 D  
                                         8.000E-01 0.000E+00 0.000E+00 1.000E+00
   2 O    1.398   7.364  -2.542
   3 O    2.148   0.000   1.178
   4 O   -1.461   7.364   1.711
   5 O   -4.196   3.688   3.926
   6 O   -4.196  -3.688   3.926
   7 H   -2.546   1.475  -2.732
                                 91 S  
                                         1.874E+01 1.968E-02 0.000E+00 0.000E+00
                                         2.826E+00 1.380E-01 0.000E+00 0.000E+00
                                         6.401E-01 4.783E-01 0.000E+00 0.000E+00
                                 92 S  
                                         1.756E-01 1.000E+00 0.000E+00 0.000E+00
   8 H   -2.546  -1.475  -2.732
   9 H    0.358   7.364  -1.001
  10 H    0.239   7.364  -3.996
  11 H    0.598   0.000   0.155
  12 H    3.590   0.000   0.008
  13 H   -2.498   5.887   2.161
  14 H   -2.498  -5.887   2.161
  15 H    3.202   4.817  -3.539
  16 H    3.202  -4.817  -3.539
  17 H    3.224   2.559   2.947
  18 H    3.224  -2.559   2.947

 *******************************************************************************
 FINISHED BASIS SET HANDLING 
 *******************************************************************************

 INFORMATION **** SET_MPP **** PCRYSTAL CALCULATION
 INFORMATION **** READM2 **** NEW DEFAULT: FOCK/KS MATRIX MIXING SET TO 30 %
 INFORMATION **** READM2 **** NEW DEFAULT: FULL DIRECT SCF MODE
 INFORMATION **** READM2 **** NEW DEFAULT: COULOMB BIPOLAR BUFFER SET TO 32 Mb
 INFORMATION **** READM2 **** NEW DEFAULT: EXCHANGE BIPOLAR BUFFER SET TO 32 Mb

 *******************************************************************************
 NEW DEFAULT: DFT INTEGRATION GRID INCREASED TO XLGRID
 NEW DEFAULT: DIIS ACCELERATOR ACTIVE
 USE KEYWORD NODIIS TO TURN IT OFF
 *******************************************************************************

 INFORMATION **** RDDFTP **** HSE-3c calculation
 INFORMATION **** RDDFTP **** HSE screened hybrid functional combined with D3 and gCP

PLEASE CITE:
(1) HSE-3c Reference
 J. G. Brandenburg, E. Caldeweyer, and S. Grimme, 
 Phys. Chem. Chem. Phys. 18, 15519 (2016)
(2) DFT-D3 Reference
 S. Grimme, J. Antony, S. Ehrlich,
 and H. Krieg, J. Chem. Phys. 132, 154104 (2010)
(3) gCP Reference
 H. Kruse and S. Grimme J. Chem. Phys, 136, 154101 (2012)
 J. G. Brandenburg, M. Alessio, B. Civalleri, M. F. Peintinger
 T. Bredow, and S. Grimme, J. Phys. Chem. A, 117, 9282 (2013) 

 WARNING **** RDDFTP **** HSE3c-HJS ACTIVE
 RANGE SEPARATION - OMEGA:   0.110000000000000     
 WARNING **** RDDFTP **** HSE-3c has to be combined with def2-mSVP basis set
 WARNING **** RDDFTP **** Note: Harmonic frequencies are scaled by 0.95
 WARNING **** RDDFTP **** as recommended in original publication
 INFORMATION **** BIPOSIZE **** COULOMB BIPOLAR BUFFER SET TO    60000000
 INFORMATION **** EXCHSIZE **** EXCHANGE BIPOLAR BUFFER SIZE SET TO    40000000
 *******************************************************************************
 N. OF ATOMS PER CELL        18  COULOMB OVERLAP TOL         (T1) 10**   -6
 NUMBER OF SHELLS            66  COULOMB PENETRATION TOL     (T2) 10**   -6
 NUMBER OF AO               114  EXCHANGE OVERLAP TOL        (T3) 10**   -6
 N. OF ELECTRONS PER CELL    60  EXCHANGE PSEUDO OVP (F(G))  (T4) 10**   -6
 CORE ELECTRONS PER CELL     12  EXCHANGE PSEUDO OVP (P(G))  (T5) 10**  -12
 N. OF SYMMETRY OPERATORS     2  POLE ORDER IN MONO ZONE                  4
 *******************************************************************************
 TYPE OF CALCULATION :  RESTRICTED CLOSED SHELL
 KOHN-SHAM HAMILTONIAN

 (EXCHANGE)[CORRELATION] FUNCTIONAL:(HSE-3c)[PBEh-3c]

 RANGE-SEPARATED HYBRID FUNCTIONAL 
 OMEGA (SHORT-RANGE)[LONG-RANGE]:(    0.1100)[    0.0000]

 HYBRID EXCHANGE - PERCENTAGE OF FOCK EXCHANGE    42.0000

 CAPPA:IS1  2;IS2  2;IS3  2; K PTS MONK NET   8; SYMMOPS:K SPACE   4;G SPACE   2

 *******************************************************************************
 MAX NUMBER OF SCF CYCLES      50  CONVERGENCE ON DELTAP        10**-16
 WEIGHT OF F(I) IN F(I+1)      30% CONVERGENCE ON ENERGY        10**- 6
 S(K) EIGENV. THRESHOLD  10*10.**-4
 SHRINK. FACT.(MONKH.)    2  2  2  NUMBER OF K POINTS IN THE IBZ      8
 SHRINKING FACTOR(GILAT NET)    2  NUMBER OF K POINTS(GILAT NET)      8
 *******************************************************************************
 *** K POINTS COORDINATES (OBLIQUE COORDINATES IN UNITS OF IS =  2)
   1-R(  0  0  0)   2-R(  1  0  0)   3-R(  0  1  0)   4-R(  1  1  0)
   5-R(  0  0  1)   6-R(  1  0  1)   7-R(  0  1  1)   8-R(  1  1  1)

 DIRECT LATTICE VECTORS COMPON. (A.U.)     RECIP. LATTICE VECTORS COMPON. (A.U.) 
        X            Y            Z              X            Y            Z
    8.5235318    0.0000000    0.0000000      0.7371575    0.0000000   -0.0032255
    0.0000000   14.7285172    0.0000000     -0.0000000    0.4266000   -0.0000000
    0.0370347    0.0000000    8.4638078      0.0000000    0.0000000    0.7423592

 DISK SPACE FOR EIGENVECTORS (FTN 10)      103968 REALS

 SYMMETRY ADAPTION OF THE BLOCH FUNCTIONS ENABLED
 TTTTTTTTTTTTTTTTTTTTTTTTTTTTTT gordsh1     TELAPSE        0.13 TCPU        0.04

 MATRIX SIZE: P(G)   65368, F(G)   11632, P(G) IRR   19330, F(G) IRR    7227
 MAX G-VECTOR INDEX FOR 1- AND 2-ELECTRON INTEGRALS 131

 TTTTTTTTTTTTTTTTTTTTTTTTTTTTTT INPUT       TELAPSE        0.13 TCPU        0.04

 NEIGHBORS OF THE NON-EQUIVALENT ATOMS

 N = NUMBER OF NEIGHBORS AT DISTANCE R
    ATOM  N     R/ANG      R/AU   NEIGHBORS (ATOM LABELS AND CELL INDICES)
   1 O    2     0.9834     1.8583    7 H    0 0 0    8 H    0 0 0
   1 O    1     1.7353     3.2793   11 H    0 0 0
   1 O    1     1.7412     3.2905   12 H   -1 0 0
   1 O    2     2.7093     5.1198    5 O    0 0-1    6 O    0 0-1
   1 O    1     2.7179     5.1360    3 O   -1 0 0
   1 O    1     2.7180     5.1363    3 O    0 0 0

   2 O    1     0.9835     1.8586    9 H    0 0 0
   2 O    1     0.9838     1.8591   10 H    0 0 0
   2 O    2     1.7340     3.2767   15 H    0 0 0   16 H    0 1 0
   2 O    2     2.6914     5.0860    5 O    1 0-1    6 O    1 1-1
   2 O    1     2.7047     5.1112    4 O    0 0-1
   2 O    1     2.7116     5.1242    4 O    0 0 0

   3 O    1     0.9827     1.8571   11 H    0 0 0
   3 O    1     0.9828     1.8572   12 H    0 0 0
   3 O    2     1.7417     3.2913   17 H    0 0 0   18 H    0 0 0
   3 O    2     2.6932     5.0895    5 O    1 0 0    6 O    1 0 0
   3 O    1     2.7179     5.1360    1 O    1 0 0
   3 O    1     2.7180     5.1363    1 O    0 0 0

   4 O    2     0.9843     1.8600   13 H    0 0 0   14 H    0 1 0
   4 O    1     1.7248     3.2593   10 H    0 0 1
   4 O    1     1.7281     3.2656    9 H    0 0 0
   4 O    2     2.6930     5.0890    5 O    0 0 0    6 O    0 1 0
   4 O    1     2.7047     5.1112    2 O    0 0 1
   4 O    1     2.7116     5.1242    2 O    0 0 0

   5 O    1     0.9832     1.8580   17 H   -1 0 0
   5 O    1     0.9840     1.8595   15 H   -1 0 1
   5 O    1     1.7417     3.2913   13 H    0 0 0
   5 O    1     1.7552     3.3169    7 H    0 0 1
   5 O    1     2.6914     5.0860    2 O   -1 0 1
   5 O    1     2.6930     5.0890    4 O    0 0 0

   7 H    1     0.9834     1.8583    1 O    0 0 0
   7 H    1     1.5616     2.9510    8 H    0 0 0
   7 H    1     1.7552     3.3169    5 O    0 0-1
   7 H    1     2.0755     3.9221   12 H   -1 0 0
   7 H    1     2.1635     4.0885   17 H   -1 0-1
   7 H    1     2.3380     4.4181   15 H   -1 0 0

   9 H    1     0.9835     1.8586    2 O    0 0 0
   9 H    1     1.5858     2.9968   10 H    0 0 0
   9 H    1     1.7281     3.2656    4 O    0 0 0
   9 H    2     2.3864     4.5096   13 H    0 0 0   14 H    0 1 0
   9 H    2     2.4260     4.5845   15 H    0 0 0   16 H    0 1 0
   9 H    1     2.8946     5.4700   10 H    0 0 1

  10 H    1     0.9838     1.8591    2 O    0 0 0
  10 H    1     1.5858     2.9968    9 H    0 0 0
  10 H    1     1.7248     3.2593    4 O    0 0-1
  10 H    2     2.0632     3.8988   13 H    0 0-1   14 H    0 1-1
  10 H    2     2.0816     3.9337   15 H    0 0 0   16 H    0 1 0
  10 H    1     2.8946     5.4700    9 H    0 0-1

  11 H    1     0.9827     1.8571    3 O    0 0 0
  11 H    1     1.5849     2.9949   12 H    0 0 0
  11 H    1     1.7353     3.2793    1 O    0 0 0
  11 H    2     2.3900     4.5165    7 H    0 0 0    8 H    0 0 0
  11 H    2     2.4387     4.6084   17 H    0 0 0   18 H    0 0 0
  11 H    1     2.9285     5.5341   12 H   -1 0 0

  12 H    1     0.9828     1.8572    3 O    0 0 0
  12 H    1     1.5849     2.9949   11 H    0 0 0
  12 H    1     1.7412     3.2905    1 O    1 0 0
  12 H    2     2.0711     3.9138   17 H    0 0 0   18 H    0 0 0
  12 H    2     2.0755     3.9221    7 H    1 0 0    8 H    1 0 0
  12 H    2     2.8740     5.4312    5 O    1 0 0    6 O    1 0 0

  13 H    1     0.9843     1.8600    4 O    0 0 0
  13 H    1     1.5637     2.9549   14 H    0 1 0
  13 H    1     1.7417     3.2913    5 O    0 0 0
  13 H    1     2.0632     3.8988   10 H    0 0 1
  13 H    1     2.1526     4.0677   15 H   -1 0 1
  13 H    1     2.3394     4.4208   17 H   -1 0 0

  15 H    1     0.9840     1.8595    5 O    1 0-1
  15 H    1     1.5887     3.0023   17 H    0 0-1
  15 H    1     1.7340     3.2767    2 O    0 0 0
  15 H    1     2.0816     3.9337   10 H    0 0 0
  15 H    1     2.1526     4.0677   13 H    1 0-1
  15 H    1     2.3380     4.4181    7 H    1 0 0

  17 H    1     0.9832     1.8580    5 O    1 0 0
  17 H    1     1.5887     3.0023   15 H    0 0 1
  17 H    1     1.7417     3.2913    3 O    0 0 0
  17 H    1     2.0711     3.9138   12 H    0 0 0
  17 H    1     2.1635     4.0885    7 H    1 0 1
  17 H    1     2.3394     4.4208   13 H    1 0 0


 SYMMETRY ALLOWED INTERNAL DEGREE(S) OF FREEDOM:  29
 TTTTTTTTTTTTTTTTTTTTTTTTTTTTTT SYMM        TELAPSE        0.30 TCPU        0.18
 TTTTTTTTTTTTTTTTTTTTTTTTTTTTTT INT_SCREEN  TELAPSE        0.30 TCPU        0.18

 DFT PARAMETERS

     ATOM       ELECTRONS   NET CHARGE   R(ANGSTROM)
   1   8  O       8.0000      0.0000     0.74000000
   7   1  H       1.0000      0.0000     1.11000000

 SIZE OF GRID=     207435
 TTTTTTTTTTTTTTTTTTTTTTTTTTTTTT MAKE_GRID2  TELAPSE        4.71 TCPU        4.59
 BECKE WEIGHT FUNCTION
 RADSAFE =     2.00
 TOLERANCES - DENSITY:10**- 6; POTENTIAL:10**- 9; GRID WGT:10**-14

 RADIAL INTEGRATION  - INTERVALS (POINTS,UPPER LIMIT):            1( 75,  4.0*R)

 ANGULAR INTEGRATION - INTERVALS (ACCURACY LEVEL [N. POINTS] UPPER LIMIT):
  1(  4[  86]   0.2)  2(  8[ 194]   0.5)  3( 12[ 350]   0.9)  4( 16[ 974]   3.5)
  5( 12[ 350]9999.0)
 TTTTTTTTTTTTTTTTTTTTTTTTTTTTTT INT_CALC    TELAPSE        4.74 TCPU        4.61
 EEEEEEEEEE INT_CALC TERMINATION  DATE 25 03 2019 TIME 17:49:58.5

 *******************************************************************************
 !drive by JGB                                                                   
 CRYSTAL - SCF - TYPE OF CALCULATION :  RESTRICTED CLOSED SHELL
 *******************************************************************************

 CAPPA:IS1  2;IS2  2;IS3  2; K PTS MONK NET   8; SYMMOPS:K SPACE   4;G SPACE   2

 TTTTTTTTTTTTTTTTTTTTTTTTTTTTTT SDIK        TELAPSE        4.79 TCPU        4.66

 AAAAAAAAAAAAAAAAAAAAAAAAAAAAAAAAAAAAAAAAAAAAAAAAAAAAAAAAAAAAAAAAAAAAAAAAAAAAAAA
         ATOMIC WAVEFUNCTION(S)


 NUCLEAR CHARGE  8.0  SYMMETRY SPECIES            S    P
 N. ELECTRONS    8.0  NUMBER OF PRIMITIVE GTOS    8    4
                      NUMBER OF CONTRACTED GTOS   4    2
                      NUMBER OF CLOSED SHELLS     2    0
                      OPEN SHELL OCCUPATION       0    4

  ZNUC SCFIT  TOTAL HF ENERGY   KINETIC ENERGY   VIRIAL THEOREM ACCURACY
   8.0  12   -7.477373220E+01  7.477365593E+01 -2.000001020E+00  3.8E-06

 NUCLEAR CHARGE  1.0  SYMMETRY SPECIES            S
 N. ELECTRONS    1.0  NUMBER OF PRIMITIVE GTOS    4
                      NUMBER OF CONTRACTED GTOS   2
                      NUMBER OF CLOSED SHELLS     0
                      OPEN SHELL OCCUPATION       1

  ZNUC SCFIT  TOTAL HF ENERGY   KINETIC ENERGY   VIRIAL THEOREM ACCURACY
   1.0   1   -4.977266687E-01  5.190767460E-01 -1.958869132E+00  1.8E-16

 AAAAAAAAAAAAAAAAAAAAAAAAAAAAAAAAAAAAAAAAAAAAAAAAAAAAAAAAAAAAAAAAAAAAAAAAAAAAAAA

 CHARGE NORMALIZATION FACTOR   1.00000000
 TOTAL ATOMIC CHARGES:
   8.0000000   8.0000000   8.0000000   8.0000000   8.0000000   8.0000000
   1.0000000   1.0000000   1.0000000   1.0000000   1.0000000   1.0000000
   1.0000000   1.0000000   1.0000000   1.0000000   1.0000000   1.0000000
 TTTTTTTTTTTTTTTTTTTTTTTTTTTTTT MOQGAD      TELAPSE        4.95 TCPU        4.81
 TTTTTTTTTTTTTTTTTTTTTTTTTTTTTT SHELLXN     TELAPSE        9.74 TCPU        9.55
 TTTTTTTTTTTTTTTTTTTTTTTTTTTTTT MONMO3      TELAPSE       10.37 TCPU       10.18
 NUMERICALLY INTEGRATED DENSITY     60.0000065640
 TTTTTTTTTTTTTTTTTTTTTTTTTTTTTT NUMDFT      TELAPSE       10.70 TCPU       10.51
 CYC   0 ETOT(AU) -4.579635680912E+02 DETOT -4.58E+02 tst  0.00E+00 PX  1.00E+00
 TTTTTTTTTTTTTTTTTTTTTTTTTTTTTT DIIS        TELAPSE       10.70 TCPU       10.51
 TTTTTTTTTTTTTTTTTTTTTTTTTTTTTT FDIK        TELAPSE       11.14 TCPU       10.62
 INSULATING STATE
 TOP OF VALENCE BANDS -    BAND     30; K    2; EIG -4.1175836E-01 AU
 TOP OF VALENCE BANDS -    BAND     30; K    1; EIG -4.1848794E-01 AU
 BOTTOM OF VIRTUAL BANDS - BAND     31; K    1; EIG -7.6355504E-02 AU
 INDIRECT ENERGY BAND GAP:   9.1268 eV
 TTTTTTTTTTTTTTTTTTTTTTTTTTTTTT PDIG        TELAPSE       11.15 TCPU       10.62
 CHARGE NORMALIZATION FACTOR   1.00000000
 TOTAL ATOMIC CHARGES:
   9.0624799   9.0775606   9.0763439   9.0621547   9.0706588   9.0706588
   0.4634638   0.4634638   0.4560388   0.4747662   0.4561055   0.4741957
   0.4649273   0.4649273   0.4648505   0.4648505   0.4662769   0.4662769
 TTTTTTTTTTTTTTTTTTTTTTTTTTTTTT MOQGAD      TELAPSE       11.15 TCPU       10.62
 TTTTTTTTTTTTTTTTTTTTTTTTTTTTTT SHELLXN     TELAPSE       16.01 TCPU       15.48
 TTTTTTTTTTTTTTTTTTTTTTTTTTTTTT MONMO3      TELAPSE       16.69 TCPU       16.16
 NUMERICALLY INTEGRATED DENSITY     60.0000071066
 TTTTTTTTTTTTTTTTTTTTTTTTTTTTTT NUMDFT      TELAPSE       17.42 TCPU       16.88
 CYC   1 ETOT(AU) -4.576237713005E+02 DETOT  3.40E-01 tst  0.00E+00 PX  1.00E+00
 TTTTTTTTTTTTTTTTTTTTTTTTTTTTTT DIIS        TELAPSE       17.42 TCPU       16.89
 DIIS TEST: 0.60770E+00 AT SCF   CYCLE   1 - MIX   30 %
 TTTTTTTTTTTTTTTTTTTTTTTTTTTTTT FDIK        TELAPSE       17.42 TCPU       16.89
 INSULATING STATE
 TOP OF VALENCE BANDS -    BAND     30; K    2; EIG -3.1397139E-01 AU
 TOP OF VALENCE BANDS -    BAND     30; K    1; EIG -3.2322389E-01 AU
 BOTTOM OF VIRTUAL BANDS - BAND     31; K    1; EIG -1.6332826E-02 AU
 INDIRECT ENERGY BAND GAP:   8.0992 eV
 TTTTTTTTTTTTTTTTTTTTTTTTTTTTTT PDIG        TELAPSE       17.43 TCPU       16.89
 CHARGE NORMALIZATION FACTOR   1.00000000
 TOTAL ATOMIC CHARGES:
   8.8515972   8.8637407   8.8596635   8.8528787   8.8618945   8.8618945
   0.5683172   0.5683172   0.5562210   0.5859041   0.5567872   0.5870226
   0.5690874   0.5690874   0.5711086   0.5711086   0.5726850   0.5726850
 TTTTTTTTTTTTTTTTTTTTTTTTTTTTTT MOQGAD      TELAPSE       17.43 TCPU       16.89
 TTTTTTTTTTTTTTTTTTTTTTTTTTTTTT SHELLXN     TELAPSE       22.28 TCPU       21.75
 TTTTTTTTTTTTTTTTTTTTTTTTTTTTTT MONMO3      TELAPSE       22.97 TCPU       22.43
 NUMERICALLY INTEGRATED DENSITY     60.0000068259
 TTTTTTTTTTTTTTTTTTTTTTTTTTTTTT NUMDFT      TELAPSE       23.66 TCPU       23.12
 CYC   2 ETOT(AU) -4.577489336577E+02 DETOT -1.25E-01 tst  3.10E-03 PX  1.24E-01
 TTTTTTTTTTTTTTTTTTTTTTTTTTTTTT DIIS        TELAPSE       23.69 TCPU       23.15
 DIIS TEST: 0.13000E+00 AT SCF   CYCLE   2 - DIIS ACTIVE - HISTORY:     2 CYCLES
 TTTTTTTTTTTTTTTTTTTTTTTTTTTTTT FDIK        TELAPSE       23.72 TCPU       23.16
 INSULATING STATE
 TOP OF VALENCE BANDS -    BAND     30; K    2; EIG -3.5904612E-01 AU
 TOP OF VALENCE BANDS -    BAND     30; K    1; EIG -3.6695627E-01 AU
 BOTTOM OF VIRTUAL BANDS - BAND     31; K    1; EIG -1.7971350E-02 AU
 INDIRECT ENERGY BAND GAP:   9.2811 eV
 TTTTTTTTTTTTTTTTTTTTTTTTTTTTTT PDIG        TELAPSE       23.72 TCPU       23.16
 CHARGE NORMALIZATION FACTOR   1.00000000
 TOTAL ATOMIC CHARGES:
   8.9243684   8.9364011   8.9338443   8.9249152   8.9345122   8.9345122
   0.5324807   0.5324807   0.5214870   0.5474381   0.5217921   0.5478135
   0.5334651   0.5334651   0.5345266   0.5345266   0.5359855   0.5359855
 TTTTTTTTTTTTTTTTTTTTTTTTTTTTTT MOQGAD      TELAPSE       23.72 TCPU       23.16
 TTTTTTTTTTTTTTTTTTTTTTTTTTTTTT SHELLXN     TELAPSE       28.58 TCPU       28.01
 TTTTTTTTTTTTTTTTTTTTTTTTTTTTTT MONMO3      TELAPSE       29.26 TCPU       28.70
 NUMERICALLY INTEGRATED DENSITY     60.0000068743
 TTTTTTTTTTTTTTTTTTTTTTTTTTTTTT NUMDFT      TELAPSE       29.97 TCPU       29.41
 CYC   3 ETOT(AU) -4.577828527760E+02 DETOT -3.39E-02 tst  2.72E-04 PX  4.49E-02
 TTTTTTTTTTTTTTTTTTTTTTTTTTTTTT DIIS        TELAPSE       29.98 TCPU       29.42
 DIIS TEST: 0.43868E-03 AT SCF   CYCLE   3 - DIIS ACTIVE - HISTORY:     3 CYCLES
 TTTTTTTTTTTTTTTTTTTTTTTTTTTTTT FDIK        TELAPSE       30.00 TCPU       29.42
 INSULATING STATE
 TOP OF VALENCE BANDS -    BAND     30; K    2; EIG -3.5686802E-01 AU
 TOP OF VALENCE BANDS -    BAND     30; K    1; EIG -3.6472653E-01 AU
 BOTTOM OF VIRTUAL BANDS - BAND     31; K    1; EIG -1.5740622E-02 AU
 INDIRECT ENERGY BAND GAP:   9.2826 eV
 TTTTTTTTTTTTTTTTTTTTTTTTTTTTTT PDIG        TELAPSE       30.00 TCPU       29.42
 CHARGE NORMALIZATION FACTOR   1.00000000
 TOTAL ATOMIC CHARGES:
   8.9222147   8.9345150   8.9310313   8.9231456   8.9320636   8.9320636
   0.5337207   0.5337207   0.5226779   0.5480598   0.5233146   0.5487704
   0.5345653   0.5345653   0.5356096   0.5356096   0.5371762   0.5371762
 TTTTTTTTTTTTTTTTTTTTTTTTTTTTTT MOQGAD      TELAPSE       30.00 TCPU       29.42
 TTTTTTTTTTTTTTTTTTTTTTTTTTTTTT SHELLXN     TELAPSE       34.86 TCPU       34.28
 TTTTTTTTTTTTTTTTTTTTTTTTTTTTTT MONMO3      TELAPSE       35.55 TCPU       34.97
 NUMERICALLY INTEGRATED DENSITY     60.0000068812
 TTTTTTTTTTTTTTTTTTTTTTTTTTTTTT NUMDFT      TELAPSE       36.25 TCPU       35.66
 CYC   4 ETOT(AU) -4.577829319220E+02 DETOT -7.91E-05 tst  1.18E-06 PX  1.67E-03
 TTTTTTTTTTTTTTTTTTTTTTTTTTTTTT DIIS        TELAPSE       36.25 TCPU       35.67
 DIIS TEST: 0.10269E-04 AT SCF   CYCLE   4 - DIIS ACTIVE - HISTORY:     4 CYCLES
 TTTTTTTTTTTTTTTTTTTTTTTTTTTTTT FDIK        TELAPSE       36.27 TCPU       35.67
 INSULATING STATE
 TOP OF VALENCE BANDS -    BAND     30; K    2; EIG -3.5686551E-01 AU
 TOP OF VALENCE BANDS -    BAND     30; K    1; EIG -3.6470458E-01 AU
 BOTTOM OF VIRTUAL BANDS - BAND     31; K    1; EIG -1.5519260E-02 AU
 INDIRECT ENERGY BAND GAP:   9.2885 eV
 TTTTTTTTTTTTTTTTTTTTTTTTTTTTTT PDIG        TELAPSE       36.28 TCPU       35.67
 CHARGE NORMALIZATION FACTOR   1.00000000
 TOTAL ATOMIC CHARGES:
   8.9220353   8.9342473   8.9317016   8.9227599   8.9323313   8.9323313
   0.5337226   0.5337226   0.5226233   0.5483089   0.5229443   0.5487165
   0.5346301   0.5346301   0.5355979   0.5355979   0.5370495   0.5370495
 TTTTTTTTTTTTTTTTTTTTTTTTTTTTTT MOQGAD      TELAPSE       36.28 TCPU       35.67
 TTTTTTTTTTTTTTTTTTTTTTTTTTTTTT SHELLXN     TELAPSE       41.14 TCPU       40.53
 TTTTTTTTTTTTTTTTTTTTTTTTTTTTTT MONMO3      TELAPSE       41.82 TCPU       41.22
 NUMERICALLY INTEGRATED DENSITY     60.0000068759
 TTTTTTTTTTTTTTTTTTTTTTTTTTTTTT NUMDFT      TELAPSE       42.52 TCPU       41.91
 CYC   5 ETOT(AU) -4.577829342349E+02 DETOT -2.31E-06 tst  6.60E-08 PX  5.35E-04
 TTTTTTTTTTTTTTTTTTTTTTTTTTTTTT DIIS        TELAPSE       42.52 TCPU       41.92
 DIIS TEST: 0.98410E-06 AT SCF   CYCLE   5 - DIIS ACTIVE - HISTORY:     5 CYCLES
 TTTTTTTTTTTTTTTTTTTTTTTTTTTTTT FDIK        TELAPSE       42.55 TCPU       41.92
 INSULATING STATE
 TOP OF VALENCE BANDS -    BAND     30; K    2; EIG -3.5683942E-01 AU
 TOP OF VALENCE BANDS -    BAND     30; K    1; EIG -3.6470718E-01 AU
 BOTTOM OF VIRTUAL BANDS - BAND     31; K    1; EIG -1.5504541E-02 AU
 INDIRECT ENERGY BAND GAP:   9.2882 eV
 TTTTTTTTTTTTTTTTTTTTTTTTTTTTTT PDIG        TELAPSE       42.55 TCPU       41.92
 CHARGE NORMALIZATION FACTOR   1.00000000
 TOTAL ATOMIC CHARGES:
   8.9222645   8.9344847   8.9311009   8.9230933   8.9321072   8.9321072
   0.5337020   0.5337020   0.5225467   0.5481793   0.5231332   0.5488618
   0.5345581   0.5345581   0.5356365   0.5356365   0.5371641   0.5371641
 TTTTTTTTTTTTTTTTTTTTTTTTTTTTTT MOQGAD      TELAPSE       42.55 TCPU       41.92
 TTTTTTTTTTTTTTTTTTTTTTTTTTTTTT SHELLXN     TELAPSE       47.41 TCPU       46.78
 TTTTTTTTTTTTTTTTTTTTTTTTTTTTTT MONMO3      TELAPSE       48.11 TCPU       47.48
 NUMERICALLY INTEGRATED DENSITY     60.0000068768
 TTTTTTTTTTTTTTTTTTTTTTTTTTTTTT NUMDFT      TELAPSE       48.81 TCPU       48.18
 CYC   6 ETOT(AU) -4.577829343529E+02 DETOT -1.18E-07 tst  6.77E-09 PX  2.79E-04
 TTTTTTTTTTTTTTTTTTTTTTTTTTTTTT DIIS        TELAPSE       48.82 TCPU       48.19
 DIIS TEST: 0.40583E-06 AT SCF   CYCLE   6 - DIIS ACTIVE - HISTORY:     6 CYCLES
 TTTTTTTTTTTTTTTTTTTTTTTTTTTTTT FDIK        TELAPSE       48.82 TCPU       48.19
 INSULATING STATE
 TOP OF VALENCE BANDS -    BAND     30; K    2; EIG -3.5683574E-01 AU
 TOP OF VALENCE BANDS -    BAND     30; K    1; EIG -3.6468488E-01 AU
 BOTTOM OF VIRTUAL BANDS - BAND     31; K    1; EIG -1.5499630E-02 AU
 INDIRECT ENERGY BAND GAP:   9.2882 eV
 TTTTTTTTTTTTTTTTTTTTTTTTTTTTTT PDIG        TELAPSE       48.82 TCPU       48.19
 CHARGE NORMALIZATION FACTOR   1.00000000
 TOTAL ATOMIC CHARGES:
   8.9220894   8.9343588   8.9313122   8.9229237   8.9321706   8.9321706
   0.5337431   0.5337431   0.5226026   0.5482373   0.5230877   0.5488162
   0.5346060   0.5346060   0.5356332   0.5356332   0.5371331   0.5371331
 TTTTTTTTTTTTTTTTTTTTTTTTTTTTTT MOQGAD      TELAPSE       48.82 TCPU       48.19
 TTTTTTTTTTTTTTTTTTTTTTTTTTTTTT SHELLXN     TELAPSE       53.65 TCPU       53.02
 +++ ENERGIES IN A.U. +++
 ::: EXT EL-POLE                                  -4.7281623901452E+02
 ::: EXT EL-SPHEROPOLE                             5.6164796791499E+00
 ::: BIELET ZONE E-E                               5.9447852121111E+02
 ::: TOTAL E-E                                     1.2727876187574E+02
 ::: TOTAL E-N + N-E                              -9.1835730144620E+02
 ::: TOTAL N-N                                    -8.7253731927251E+01
 ::: KINETIC ENERGY                                4.5488481153845E+02
 ::: PSEUDO TOTAL   ENERGY                        -4.2344745995927E+02
 ::: VIRIAL COEFFICIENT                            1.0357920944036E+00
 TTTTTTTTTTTTTTTTTTTTTTTTTTTTTT MONMO3      TELAPSE       54.33 TCPU       53.70
 NUMERICALLY INTEGRATED DENSITY     60.0000068763
 TTTTTTTTTTTTTTTTTTTTTTTTTTTTTT NUMDFT      TELAPSE       55.01 TCPU       54.38
 CYC   7 ETOT(AU) -4.577829344464E+02 DETOT -9.36E-08 tst  9.64E-10 PX  2.79E-04

 == SCF ENDED - CONVERGENCE ON ENERGY      E(AU) -4.5778293444643E+02 CYCLES   7


 ENERGY EXPRESSION=HARTREE+FOCK EXCH*0.00000+(HSE-3c     EXCH)*1.00000+PBEh-3c    CORR


 TOTAL ENERGY(DFT)(AU)(  7) -4.5778293444643E+02 DE-9.4E-08 tester 9.6E-10
 TTTTTTTTTTTTTTTTTTTTTTTTTTTTTT EDFT        TELAPSE       55.01 TCPU       54.38
 
 INFORMATION **** DFTD3 ENERGY **** CALCULATE DFTD3 ENERGY

           DFT-D V3(BJ)
 DF                                         hse3c     
 parameters
 s6       :    1.0000
 s8       :    0.0000
 a1       :    0.4411
 a2       :    4.5182
 k1 k3    :   16.0000   -4.0000
 Cutoff   :   50.2022
 CN-Cutoff:   21.1671
 
 Edisp /kcal,au:   -11.1249 -0.01772873

 E6    /kcal :   -11.9353
 E8    /kcal :     0.0000
 E6(ABC) "   :   0.810306
 
 INFORMATION **** DFTD3 ENERGY **** NORMAL TERMINATION OF DFTD3 MODULE

 GCP ENERGY CALCULATION
  level           hse3c               basis:hse3c
  Nbf            114
  Atoms           18

  Parameters: 
  sigma     1.0000
  eta       1.4086
  alpha     0.2908
  beta      1.9526

  dmp_scal      4.0000
  dmp_exp       6.0000
 cutoffs: 
   distance [bohr] 60.0
   noise    [a.u.] 2.2E-16
 SR-damping   T
 ** gCP correction **
  Egcp:        0.0794104570 / (a.u.) ||      49.8308 / (kcal/mol)
 INFORMATION **** GCP **** NORMAL TERMINATION OF GCP MODULE

 *******************************************************************************

 DFT-D3-GCP DISPERSION AND COUNTERPOISE CORRECTION

 D3 DISPERSION ENERGY (AU)      -1.7728729145571E-02
 GCP ENERGY (AU)                 7.9410456951385E-02
 TOTAL ENERGY + DISP + GCP (AU) -4.5772125271862E+02

 *******************************************************************************

 EIGENVECTORS IN FORTRAN UNIT 10
 TTTTTTTTTTTTTTTTTTTTTTTTTTTTTT END         TELAPSE       55.57 TCPU       54.93
 EEEEEEEEEE TERMINATION  DATE 25 03 2019 TIME 17:50:49.3
NODE    0 CPU TIME =        54.930
NODE    1 CPU TIME =        54.990
NODE    2 CPU TIME =        55.011
NODE    3 CPU TIME =        54.864
NODE    4 CPU TIME =        54.705
NODE    5 CPU TIME =        55.126
NODE    6 CPU TIME =        55.265
NODE    7 CPU TIME =        54.951
    TOTAL CPU TIME =       439.841
