 PROCESS            1  OF            8  WORKING
 PROCESS            2  OF            8  WORKING
 PROCESS            4  OF            8  WORKING
 PROCESS            0  OF            8  WORKING

         
 *******************************************************************************
 *                                                                             *
 *                               CRYSTAL17                                     *
 *                      public : 1.0.1 - Feb 1st, 2017                         *
 *                       HTTP://WWW.CRYSTAL.UNITO.IT                           *
 *                                                                             *
 *                              MAIN AUTHORS                                   *
 *                                                                             *
 *  R. DOVESI(1,11), V.R. SAUNDERS(2), C. ROETTI(1,11), R. ORLANDO(1,11),      *
 *  C.M. ZICOVICH-WILSON(1,3), F. PASCALE(4), B. CIVALLERI(1,11),              *
 *  K. DOLL(5), N.M. HARRISON(2,6), I.J. BUSH(7), Ph. D'ARCO(8),               *
 *  M. LLUNELL(9), M. CAUSA'(10), Y. NOEL(8), L. MASCHIO(1,11), A. ERBA(1,11)  *
 *  M. RE'RAT(14), S. CASASSA(1,11)                                            *
 *                                                                             *
 *        CONTRIBUTIONS TO THE CODE HAVE ALSO BEEN GIVEN BY                    *
 *                                                                             *
 *  M. FERRABONE(1,11), M. DE LA PIERRE(1,11), M. FERRERO(1,11),               *
 *  J. BAIMA(1,11), E. ALBANESE(1,11), M.F. PEINTINGER(12), R. BAST(13),       *
 *  B. KIRTMAN(15), V. LACIVITA(1,11), R. DEMICHELIS(1,16)                     *
 *  G. BRANDEBURG(17), S. SALUSTRO(1,11), G. SANSONE(1,11)                     *
 *  M.T. RUGGIERO(18)                                                          *
 *                                                                             *
 * (1) THEORETICAL CHEMISTRY GROUP - UNIVERSITA' DI TORINO - TORINO (ITALY)    *

 * (2) COMPUTATIONAL SCIENCE & ENGINEERING DEPARTMENT - STFC DARESBURY (UK)    *
 * (3) UNIVERSIDAD AUTONOMA DEL ESTADO DE MORELOS - CUERNAVACA (MEXICO)        *
 * (4) UNIVERSITE' DE LORRAINE - NANCY (FRANCE)                                *
 * (5) UNIVERSITAET STUTTGART- STUTTGART (GERMANY)                             *
 * (6) IMPERIAL COLLEGE - LONDON (UK)                                          *
 * (7) OXFORD E-RESEARCH CENTRE - OXFORD (UK)                                  *
 * (8) UPMC - SORBONNE UNIVERSITES - PARIS (FRANCE)                            *
 * (9) UNIVERSIDAD DE BARCELONA - BARCELONA (SPAIN)                            *
 *(10) UNIVERSITA' DI NAPOLI "FEDERICO II" - NAPOLI (ITALY)                    *
 *(11) NIS - NANOSTRUCTURED INTERFACES AND SURFACES - TORINO (ITALY)           *
 *(12) MPI FUER CHEMISCHE ENERGIEKONVERSION - MUELHEIM AN DER RUHR (GERMANY)   *
 *(13) UNIVERSITY OF TROMSO - TROMSO (NORWAY)                                  *
 *(14) UNIVERSITE' DE PAU ET DES PAYS DE L'ADOUR - PAU (FRANCE)                *
 *(15) UNIVERSITY OF CALIFORNIA SANTA BARBARA - SANTA BARBARA (USA)            *
 *(16) CURTIN UNIVERSITY - PERTH (AUSTRALIA)                                   *
 *(17) UNIVERSITY COLLEGE LONDON - LONDON (UK)                                 *
 *(18) CAMBRIDGE UNIVERSITY - CAMBRIDGE (UK)                                   *
 *                                                                             *
 *******************************************************************************
 EEEEEEEEEE STARTING  DATE 25 03 2019 TIME 17:49:14.2
 PROCESS            6  OF            8  WORKING
 PROCESS            7  OF            8  WORKING
 !drive by JGB                                                                   
 PROCESS            5  OF            8  WORKING
 PROCESS            3  OF            8  WORKING

 CRYSTAL CALCULATION
 (INPUT ACCORDING TO THE INTERNATIONAL TABLES FOR X-RAY CRYSTALLOGRAPHY)
 CRYSTAL FAMILY                       :  TRICLINIC   
 CRYSTAL CLASS  (GROTH - 1921)        :  TRICLINIC PEDIAL                     

 SPACE GROUP (NONCENTROSYMMETRIC)     :  P 1             

 LATTICE PARAMETERS  (ANGSTROMS AND DEGREES) - CONVENTIONAL CELL
        A           B           C        ALPHA        BETA       GAMMA
    12.71080     4.41311     6.92036   106.55309   100.94452    65.66742


 NUMBER OF IRREDUCIBLE ATOMS IN THE CONVENTIONAL CELL:   36

 INPUT COORDINATES

 ATOM AT. N.              COORDINATES
   1   8     2.865430795706E-01  4.488361141403E-01  4.131801645648E-01
   2   8     7.439506756019E-01  7.846254494958E-01  5.826974698602E-01
   3   8     3.551124496507E-01  9.801570592988E-01  6.380826680654E-01
   4   8     8.770465198004E-01  2.781409767252E-01  4.976967415765E-02
   5   8     2.209973354197E-01  3.035646682563E-01  9.880982372722E-01
   6   8     6.601324996636E-01  3.107625214006E-01  4.037859925182E-01
   7   8     9.566393043775E-02  9.279193726297E-01  9.165490191183E-01
   8   8     7.387222125389E-01  8.910714931902E-01  9.881123614815E-01
   9   8     6.598652768863E-02  7.902996770583E-01  5.190664939881E-01
  10   8     9.466661054273E-01  4.017724454101E-01  4.319749384001E-01
  11   8     4.534668481437E-01  6.310512441419E-01  1.426148584629E-01
  12   8     5.234860976481E-01  9.437763703898E-01  9.487469597435E-01
  13   1     3.211754131512E-01  6.185848024961E-01  4.758506403341E-01
  14   1     2.046254004874E-01  5.722238795003E-01  4.402906258123E-01
  15   1     7.062606713421E-01  6.177022348042E-01  5.225763913036E-01
  16   1     7.435124206727E-01  8.325273695126E-01  7.302114442052E-01
  17   1     3.349734289524E-01  1.477751124717E-01  5.546185270332E-01
  18   1     3.032977784062E-01  8.978727757529E-02  7.465998664505E-01
  19   1     8.299629796935E-01  1.422614538652E-01  2.710327522846E-02
  20   1     9.021048220741E-01  3.218559493546E-01  1.972403044027E-01
  21   1     1.754854331727E-01  5.404001714643E-01  9.759431612123E-01
  22   1     2.628354482241E-01  3.179249590885E-01  1.220299957383E-01
  23   1     6.831356614792E-01  1.307098585396E-01  4.787788521205E-01
  24   1     6.925638299598E-01  1.931970234310E-01  2.747767079614E-01
  25   1     1.400413911215E-01  7.946552785765E-02  9.563235476161E-01
  26   1     1.808780377020E-02  5.673110880858E-02  9.643311198681E-01
  27   1     7.891574782271E-01  6.604896066462E-01  9.621448889518E-03
  28   1     6.570958822714E-01  9.062068396445E-01  9.718287399042E-01
  29   1     7.834101562782E-02  8.410030184697E-01  6.689438534015E-01
  30   1     2.292709421789E-02  1.415330906870E-02  4.841605129715E-01
  31   1     8.756957463039E-01  5.450700473750E-01  5.033070782061E-01
  32   1     9.935640910279E-01  5.455423726982E-01  4.591108371475E-01
  33   1     4.964301813365E-01  6.047817664320E-01  2.716270986392E-01
  34   1     4.672137420111E-01  3.959154229819E-01  6.771510179110E-02
  35   1     4.768056404666E-01  9.349337830935E-01  8.182631732453E-01
  36   1     4.997223644083E-01  8.249797126888E-01  2.470885888479E-02

 *******************************************************************************

 << INFORMATION >>: FROM NOW ON, ALL COORDINATES REFER TO THE PRIMITIVE CELL

 *******************************************************************************

 LATTICE PARAMETERS  (ANGSTROMS AND DEGREES) - PRIMITIVE CELL
       A          B          C        ALPHA      BETA     GAMMA        VOLUME
   12.71080    4.41311    6.92036   106.55309 100.94452  65.66742    337.880343

 COORDINATES OF THE EQUIVALENT ATOMS (FRACTIONAL UNITS)

 N. ATOM EQUIV AT. N.          X                  Y                  Z

   1   1   1    8 O     2.86543079571E-01  4.48836114140E-01  4.13180164565E-01

   2   2   1    8 O    -2.56049324398E-01 -2.15374550504E-01 -4.17302530140E-01

   3   3   1    8 O     3.55112449651E-01 -1.98429407012E-02 -3.61917331935E-01

   4   4   1    8 O    -1.22953480200E-01  2.78140976725E-01  4.97696741576E-02

   5   5   1    8 O     2.20997335420E-01  3.03564668256E-01 -1.19017627278E-02

   6   6   1    8 O    -3.39867500336E-01  3.10762521401E-01  4.03785992518E-01

   7   7   1    8 O     9.56639304377E-02 -7.20806273703E-02 -8.34509808817E-02

   8   8   1    8 O    -2.61277787461E-01 -1.08928506810E-01 -1.18876385185E-02

   9   9   1    8 O     6.59865276886E-02 -2.09700322942E-01 -4.80933506012E-01

  10  10   1    8 O    -5.33338945727E-02  4.01772445410E-01  4.31974938400E-01

  11  11   1    8 O     4.53466848144E-01 -3.68948755858E-01  1.42614858463E-01

  12  12   1    8 O    -4.76513902352E-01 -5.62236296102E-02 -5.12530402565E-02

  13  13   1    1 H     3.21175413151E-01 -3.81415197504E-01  4.75850640334E-01

  14  14   1    1 H     2.04625400487E-01 -4.27776120500E-01  4.40290625812E-01

  15  15   1    1 H    -2.93739328658E-01 -3.82297765196E-01 -4.77423608696E-01

  16  16   1    1 H    -2.56487579327E-01 -1.67472630487E-01 -2.69788555795E-01

  17  17   1    1 H     3.34973428952E-01  1.47775112472E-01 -4.45381472967E-01

  18  18   1    1 H     3.03297778406E-01  8.97872775753E-02 -2.53400133549E-01

  19  19   1    1 H    -1.70037020307E-01  1.42261453865E-01  2.71032752285E-02

  20  20   1    1 H    -9.78951779259E-02  3.21855949355E-01  1.97240304403E-01

  21  21   1    1 H     1.75485433173E-01 -4.59599828536E-01 -2.40568387877E-02

  22  22   1    1 H     2.62835448224E-01  3.17924959088E-01  1.22029995738E-01

  23  23   1    1 H    -3.16864338521E-01  1.30709858540E-01  4.78778852120E-01

  24  24   1    1 H    -3.07436170040E-01  1.93197023431E-01  2.74776707961E-01

  25  25   1    1 H     1.40041391121E-01  7.94655278577E-02 -4.36764523839E-02

  26  26   1    1 H     1.80878037702E-02  5.67311088086E-02 -3.56688801319E-02

  27  27   1    1 H    -2.10842521773E-01 -3.39510393354E-01  9.62144888952E-03

  28  28   1    1 H    -3.42904117729E-01 -9.37931603555E-02 -2.81712600958E-02

  29  29   1    1 H     7.83410156278E-02 -1.58996981530E-01 -3.31056146599E-01

  30  30   1    1 H     2.29270942179E-02  1.41533090687E-02  4.84160512971E-01

  31  31   1    1 H    -1.24304253696E-01 -4.54929952625E-01 -4.96692921794E-01

  32  32   1    1 H    -6.43590897215E-03 -4.54457627302E-01  4.59110837148E-01

  33  33   1    1 H     4.96430181337E-01 -3.95218233568E-01  2.71627098639E-01

  34  34   1    1 H     4.67213742011E-01  3.95915422982E-01  6.77151017911E-02

  35  35   1    1 H     4.76805640467E-01 -6.50662169065E-02 -1.81736826755E-01

  36  36   1    1 H     4.99722364408E-01 -1.75020287311E-01  2.47088588848E-02

 NUMBER OF SYMMETRY OPERATORS         :    1
 *******************************************************************************
 * GEOMETRY EDITING - INPUT COORDINATES ARE GIVEN IN ANGSTROM         
 *******************************************************************************

 GCALCO - MAX INDICES DIRECT LATTICE VECTOR     8    26    15
 NO.OF VECTORS CREATED 6999 STARS 3500 RMAX   156.26809 BOHR

 GEOMETRY FOR WAVE FUNCTION - DIMENSIONALITY OF THE SYSTEM    3
 (NON PERIODIC DIRECTION: LATTICE PARAMETER FORMALLY SET TO 500)
 *******************************************************************************
 LATTICE PARAMETERS (ANGSTROMS AND DEGREES) - BOHR = 0.5291772083 ANGSTROM
 PRIMITIVE CELL - CENTRING CODE 1/0 VOLUME=   337.880343 - DENSITY  1.062 g/cm^3
         A              B              C           ALPHA      BETA       GAMMA 
    12.71080232     4.41310828     6.92036382   106.553093 100.944523  65.667423
 *******************************************************************************
 ATOMS IN THE ASYMMETRIC UNIT   36 - ATOMS IN THE UNIT CELL:   36
     ATOM                 X/A                 Y/B                 Z/C    
 *******************************************************************************
      1 T   8 O     2.865430795706E-01  4.488361141403E-01  4.131801645648E-01
      2 T   8 O    -2.560493243981E-01 -2.153745505042E-01 -4.173025301398E-01
      3 T   8 O     3.551124496507E-01 -1.984294070117E-02 -3.619173319346E-01
      4 T   8 O    -1.229534801996E-01  2.781409767252E-01  4.976967415765E-02
      5 T   8 O     2.209973354197E-01  3.035646682563E-01 -1.190176272775E-02
      6 T   8 O    -3.398675003364E-01  3.107625214006E-01  4.037859925182E-01
      7 T   8 O     9.566393043775E-02 -7.208062737032E-02 -8.345098088168E-02
      8 T   8 O    -2.612777874611E-01 -1.089285068098E-01 -1.188763851853E-02
      9 T   8 O     6.598652768863E-02 -2.097003229417E-01 -4.809335060119E-01
     10 T   8 O    -5.333389457274E-02  4.017724454101E-01  4.319749384001E-01
     11 T   8 O     4.534668481437E-01 -3.689487558581E-01  1.426148584629E-01
     12 T   8 O    -4.765139023519E-01 -5.622362961021E-02 -5.125304025645E-02
     13 T   1 H     3.211754131512E-01 -3.814151975039E-01  4.758506403341E-01
     14 T   1 H     2.046254004874E-01 -4.277761204997E-01  4.402906258123E-01
     15 T   1 H    -2.937393286579E-01 -3.822977651958E-01 -4.774236086964E-01
     16 T   1 H    -2.564875793273E-01 -1.674726304874E-01 -2.697885557948E-01
     17 T   1 H     3.349734289524E-01  1.477751124717E-01 -4.453814729668E-01
     18 T   1 H     3.032977784062E-01  8.978727757529E-02 -2.534001335495E-01
     19 T   1 H    -1.700370203065E-01  1.422614538652E-01  2.710327522846E-02
     20 T   1 H    -9.789517792588E-02  3.218559493546E-01  1.972403044027E-01
     21 T   1 H     1.754854331727E-01 -4.595998285357E-01 -2.405683878772E-02
     22 T   1 H     2.628354482241E-01  3.179249590885E-01  1.220299957383E-01
     23 T   1 H    -3.168643385208E-01  1.307098585396E-01  4.787788521205E-01
     24 T   1 H    -3.074361700402E-01  1.931970234310E-01  2.747767079614E-01
     25 T   1 H     1.400413911215E-01  7.946552785765E-02 -4.367645238387E-02
     26 T   1 H     1.808780377020E-02  5.673110880858E-02 -3.566888013186E-02
     27 T   1 H    -2.108425217729E-01 -3.395103933538E-01  9.621448889518E-03
     28 T   1 H    -3.429041177286E-01 -9.379316035553E-02 -2.817126009576E-02
     29 T   1 H     7.834101562782E-02 -1.589969815303E-01 -3.310561465985E-01
     30 T   1 H     2.292709421789E-02  1.415330906870E-02  4.841605129715E-01
     31 T   1 H    -1.243042536961E-01 -4.549299526250E-01 -4.966929217939E-01
     32 T   1 H    -6.435908972149E-03 -4.544576273018E-01  4.591108371475E-01
     33 T   1 H     4.964301813365E-01 -3.952182335680E-01  2.716270986392E-01
     34 T   1 H     4.672137420111E-01  3.959154229819E-01  6.771510179110E-02
     35 T   1 H     4.768056404666E-01 -6.506621690654E-02 -1.817368267547E-01
     36 T   1 H     4.997223644083E-01 -1.750202873112E-01  2.470885888479E-02

 T = ATOM BELONGING TO THE ASYMMETRIC UNIT

 ****    1 SYMMOPS - TRANSLATORS IN FRACTIONAL UNITS
 **** MATRICES AND TRANSLATORS IN THE CRYSTALLOGRAPHIC REFERENCE FRAME
   V INV                    ROTATION MATRICES                   TRANSLATORS
   1   1  1.00 -0.00  0.00  0.00  1.00  0.00  0.00  0.00  1.00  0.00  0.00  0.00

 DIRECT LATTICE VECTORS CARTESIAN COMPONENTS (ANGSTROM)
          X                    Y                    Z
   0.115816909734E+02   0.523726358075E+01   0.000000000000E+00
   0.000000000000E+00   0.441310828000E+01   0.000000000000E+00
  -0.550403650578E+00  -0.197163733172E+01   0.661068358453E+01


 CARTESIAN COORDINATES - PRIMITIVE CELL
 *******************************************************************************
 *      ATOM          X(ANGSTROM)         Y(ANGSTROM)         Z(ANGSTROM)
 *******************************************************************************
    1     8 O     3.091237527236E+00 -1.746285710556E+00  2.731403331341E+00
    2     8 O    -2.735799313148E+00 -1.468699766632E+00 -2.758654985777E+00
    3     8 O     4.312003273373E+00 -1.927290103640E+00 -2.392520965176E+00
    4     8 O    -1.451402622123E+00  4.853987158601E-01  3.290115679613E-01
    5     8 O     2.566073618434E+00 -1.892557273058E+00 -7.867878749129E-02
    6     8 O    -4.158485645140E+00 -1.204666562363E+00  2.669301432402E+00
    7     8 O     1.153881804155E+00  3.474526746731E-01 -5.516680294273E-01
    8     8 O    -3.019495592956E+00 -1.825655824171E+00 -7.858541681325E-02
    9     8 O     1.028943129493E+00  3.683850613211E-01 -3.179299233442E+00
   10     8 O    -8.554572684043E-01  6.420437269310E-01  2.855649634209E+00
   11     8 O     5.173417163167E+00  4.655298204850E-01  9.427817037505E-01
   12     8 O    -5.490626901118E+00  1.770410815659E+00 -3.388176318805E-01
   13     1 H     3.457844453808E+00 -9.393511586994E-01  3.145698016744E+00
   14     1 H     2.127570585995E+00 -1.684238616353E+00  2.910622012479E+00
   15     1 H    -3.139222434157E+00  2.128902768726E+00 -3.156096412875E+00
   16     1 H    -2.822067276296E+00 -1.550442722127E+00 -1.783486777086E+00
   17     1 H     4.124698327055E+00 -1.128485828641E+00 -2.944275992195E+00
   18     1 H     3.652173500989E+00 -1.928803729754E+00 -1.675148103173E+00
   19     1 H    -1.984233964860E+00 -3.161513231061E-01  1.791711766397E-01
   20     1 H    -1.242353482110E+00  5.187959575006E-01  1.303893242522E+00
   21     1 H     2.045659029233E+00 -1.061768979252E+00 -1.590321492696E-01
   22     1 H     2.976913183058E+00 -1.874131385101E+00  8.067016896472E-01
   23     1 H    -3.382942826694E+00 -5.500622793271E-02 -3.445628086196E+00
   24     1 H    -3.711868818614E+00 -1.299284888288E+00  1.816461872731E+00
   25     1 H     1.645955794294E+00  1.170237780519E+00 -2.887312068045E-01
   26     1 H     2.291196354910E-01  4.154172176070E-01 -2.357956803662E-01
   27     1 H    -2.447208611823E+00  1.791604283573E+00  6.360435423331E-02
   28     1 H    -3.955903960648E+00 -2.154255111956E+00 -1.862312866705E-01
   29     1 H     1.089535945180E+00  3.613443098706E-01 -2.188507433876E+00
   30     1 H    -9.491936552467E-04 -7.720536209207E-01  3.200631955377E+00
   31     1 H    -1.716675506197E+00  7.620999737235E-01  3.327203839874E+00
   32     1 H    -3.272349896345E-01  1.468630944458E+00  3.035036474610E+00
   33     1 H     5.599996403432E+00  3.202447221497E-01  1.795640802087E+00
   34     1 H     5.373854539283E+00 -3.524787558095E-01  4.476431118351E-01
   35     1 H     5.622244195159E+00 -1.844776612487E+00 -1.201404657332E+00
   36     1 H    -5.807660822469E+00  9.719220511477E-01  1.633424478221E-01

 *******************************************************************************
 STARTING BASIS SET HANDLING 
 *******************************************************************************

 Loading internal basis set: DEF2-MSVP           

 Please cite in your publication:
 Fully Optimized Contracted Gaussian Basis Sets for Atoms Li to Kr. A. Schäfer, 
 H. Horn and R. Ahlrichs; J. Chem. Phys. 97, 2571 (1992).                       
                                                                                
                    
 S. Grimme, J. G. Brandenburg, C. Bannwarth, and A. Hansen, J. Chem. Phys., 143,
  054107 (2015).                                                                
                                                                                
                    

 *******************************************************************************
 LOCAL ATOMIC FUNCTIONS BASIS SET
 *******************************************************************************
   ATOM   X(AU)   Y(AU)   Z(AU)  N. TYPE  EXPONENT  S COEF   P COEF   D/F/G COEF
 *******************************************************************************
   1 O    5.842  -3.300   5.162
                                  1 S  
                                         6.773E+03 1.727E-03 0.000E+00 0.000E+00
                                         1.017E+03 1.325E-02 0.000E+00 0.000E+00
                                         2.313E+02 6.603E-02 0.000E+00 0.000E+00
                                         6.501E+01 2.353E-01 0.000E+00 0.000E+00
                                         2.050E+01 5.498E-01 0.000E+00 0.000E+00
                                  2 S  
                                         6.716E+00 1.000E+00 0.000E+00 0.000E+00
                                  3 S  
                                         1.147E+00 1.000E+00 0.000E+00 0.000E+00
                                  4 S  
                                         3.342E-01 1.000E+00 0.000E+00 0.000E+00
                           5-     7 P  
                                         1.769E+01 0.000E+00 4.359E-02 0.000E+00
                                         3.854E+00 0.000E+00 2.318E-01 0.000E+00
                                         1.047E+00 0.000E+00 5.146E-01 0.000E+00
                           8-    10 P  
                                         2.759E-01 0.000E+00 1.000E+00 0.000E+00
                          11-    15 D  
                                         8.000E-01 0.000E+00 0.000E+00 1.000E+00
   2 O   -5.170  -2.775  -5.213
   3 O    8.149  -3.642  -4.521
   4 O   -2.743   0.917   0.622
   5 O    4.849  -3.576  -0.149
   6 O   -7.858  -2.276   5.044
   7 O    2.181   0.657  -1.043
   8 O   -5.706  -3.450  -0.149
   9 O    1.944   0.696  -6.008
  10 O   -1.617   1.213   5.396
  11 O    9.776   0.880   1.782
  12 O  -10.376   3.346  -0.640
  13 H    6.534  -1.775   5.945
                                181 S  
                                         1.874E+01 1.968E-02 0.000E+00 0.000E+00
                                         2.826E+00 1.380E-01 0.000E+00 0.000E+00
                                         6.401E-01 4.783E-01 0.000E+00 0.000E+00
                                182 S  
                                         1.756E-01 1.000E+00 0.000E+00 0.000E+00
  14 H    4.021  -3.183   5.500
  15 H   -5.932   4.023  -5.964
  16 H   -5.333  -2.930  -3.370
  17 H    7.795  -2.133  -5.564
  18 H    6.902  -3.645  -3.166
  19 H   -3.750  -0.597   0.339
  20 H   -2.348   0.980   2.464
  21 H    3.866  -2.006  -0.301
  22 H    5.626  -3.542   1.524
  23 H   -6.393  -0.104  -6.511
  24 H   -7.014  -2.455   3.433
  25 H    3.110   2.211  -0.546
  26 H    0.433   0.785  -0.446
  27 H   -4.625   3.386   0.120
  28 H   -7.476  -4.071  -0.352
  29 H    2.059   0.683  -4.136
  30 H   -0.002  -1.459   6.048
  31 H   -3.244   1.440   6.288
  32 H   -0.618   2.775   5.735
  33 H   10.582   0.605   3.393
  34 H   10.155  -0.666   0.846
  35 H   10.625  -3.486  -2.270
  36 H  -10.975   1.837   0.309

 *******************************************************************************
 FINISHED BASIS SET HANDLING 
 *******************************************************************************

 INFORMATION **** SET_MPP **** PCRYSTAL CALCULATION
 INFORMATION **** READM2 **** NEW DEFAULT: FOCK/KS MATRIX MIXING SET TO 30 %
 INFORMATION **** READM2 **** NEW DEFAULT: FULL DIRECT SCF MODE
 INFORMATION **** READM2 **** NEW DEFAULT: COULOMB BIPOLAR BUFFER SET TO 32 Mb
 INFORMATION **** READM2 **** NEW DEFAULT: EXCHANGE BIPOLAR BUFFER SET TO 32 Mb

 *******************************************************************************
 NEW DEFAULT: DFT INTEGRATION GRID INCREASED TO XLGRID
 NEW DEFAULT: DIIS ACCELERATOR ACTIVE
 USE KEYWORD NODIIS TO TURN IT OFF
 *******************************************************************************

 INFORMATION **** RDDFTP **** HSE-3c calculation
 INFORMATION **** RDDFTP **** HSE screened hybrid functional combined with D3 and gCP

PLEASE CITE:
(1) HSE-3c Reference
 J. G. Brandenburg, E. Caldeweyer, and S. Grimme, 
 Phys. Chem. Chem. Phys. 18, 15519 (2016)
(2) DFT-D3 Reference
 S. Grimme, J. Antony, S. Ehrlich,
 and H. Krieg, J. Chem. Phys. 132, 154104 (2010)
(3) gCP Reference
 H. Kruse and S. Grimme J. Chem. Phys, 136, 154101 (2012)
 J. G. Brandenburg, M. Alessio, B. Civalleri, M. F. Peintinger
 T. Bredow, and S. Grimme, J. Phys. Chem. A, 117, 9282 (2013) 

 WARNING **** RDDFTP **** HSE3c-HJS ACTIVE
 RANGE SEPARATION - OMEGA:   0.110000000000000     
 WARNING **** RDDFTP **** HSE-3c has to be combined with def2-mSVP basis set
 WARNING **** RDDFTP **** Note: Harmonic frequencies are scaled by 0.95
 WARNING **** RDDFTP **** as recommended in original publication
 INFORMATION **** BIPOSIZE **** COULOMB BIPOLAR BUFFER SET TO    60000000
 INFORMATION **** EXCHSIZE **** EXCHANGE BIPOLAR BUFFER SIZE SET TO    40000000
 *******************************************************************************
 N. OF ATOMS PER CELL        36  COULOMB OVERLAP TOL         (T1) 10**   -6
 NUMBER OF SHELLS           132  COULOMB PENETRATION TOL     (T2) 10**   -6
 NUMBER OF AO               228  EXCHANGE OVERLAP TOL        (T3) 10**   -6
 N. OF ELECTRONS PER CELL   120  EXCHANGE PSEUDO OVP (F(G))  (T4) 10**   -6
 CORE ELECTRONS PER CELL     24  EXCHANGE PSEUDO OVP (P(G))  (T5) 10**  -12
 N. OF SYMMETRY OPERATORS     1  POLE ORDER IN MONO ZONE                  4
 *******************************************************************************
 TYPE OF CALCULATION :  RESTRICTED CLOSED SHELL
 KOHN-SHAM HAMILTONIAN

 (EXCHANGE)[CORRELATION] FUNCTIONAL:(HSE-3c)[PBEh-3c]

 RANGE-SEPARATED HYBRID FUNCTIONAL 
 OMEGA (SHORT-RANGE)[LONG-RANGE]:(    0.1100)[    0.0000]

 HYBRID EXCHANGE - PERCENTAGE OF FOCK EXCHANGE    42.0000

 CAPPA:IS1  1;IS2  2;IS3  2; K PTS MONK NET   4; SYMMOPS:K SPACE   2;G SPACE   1

 *******************************************************************************
 MAX NUMBER OF SCF CYCLES      50  CONVERGENCE ON DELTAP        10**-16
 WEIGHT OF F(I) IN F(I+1)      30% CONVERGENCE ON ENERGY        10**- 6
 S(K) EIGENV. THRESHOLD  10*10.**-4
 SHRINK. FACT.(MONKH.)    1  2  2  NUMBER OF K POINTS IN THE IBZ      4
 SHRINKING FACTOR(GILAT NET)    1  NUMBER OF K POINTS(GILAT NET)      4
 *******************************************************************************
 *** K POINTS COORDINATES (OBLIQUE COORDINATES IN UNITS OF IS =  1)
   1-R(  0  0  0)   2-R(  0  1  0)   3-R(  0  0  1)   4-R(  0  1  1)

 DIRECT LATTICE VECTORS COMPON. (A.U.)     RECIP. LATTICE VECTORS COMPON. (A.U.) 
        X            Y            Z              X            Y            Z
   21.8862241    9.8969939    0.0000000      0.2870840    0.0000000    0.0239025
    0.0000000    8.3395660    0.0000000     -0.3406974    0.7534187    0.1963409
   -1.0401122   -3.7258546   12.4923815      0.0000000    0.0000000    0.5029614

 DISK SPACE FOR EIGENVECTORS (FTN 10)      207936 REALS

 SYMMETRY ADAPTION OF THE BLOCH FUNCTIONS DISABLED
 TTTTTTTTTTTTTTTTTTTTTTTTTTTTTT gordsh1     TELAPSE        0.09 TCPU        0.04

 MATRIX SIZE: P(G)  123004, F(G)   21829, P(G) IRR   62288, F(G) IRR   22093
 MAX G-VECTOR INDEX FOR 1- AND 2-ELECTRON INTEGRALS  85

 TTTTTTTTTTTTTTTTTTTTTTTTTTTTTT INPUT       TELAPSE        0.10 TCPU        0.06

 NEIGHBORS OF THE NON-EQUIVALENT ATOMS

 N = NUMBER OF NEIGHBORS AT DISTANCE R
    ATOM  N     R/ANG      R/AU   NEIGHBORS (ATOM LABELS AND CELL INDICES)
   1 O    1     0.9784     1.8488   13 H    0 0 0
   1 O    1     0.9822     1.8560   14 H    0 0 0
   1 O    1     1.7148     3.2405   17 H    0 0 1
   1 O    1     1.9323     3.6516   22 H    0 0 0
   1 O    1     2.7007     5.1036    3 O    0 0 1
   1 O    1     2.7086     5.1186    9 O    0 0 1

   2 O    1     0.9824     1.8564   16 H    0 0 0
   2 O    1     0.9929     1.8762   15 H    0-1 0
   2 O    1     1.6683     3.1526   31 H    0-1-1
   2 O    1     1.6998     3.2121   23 H    0 0 0
   2 O    1     2.6270     4.9642    6 O    0-1-1
   2 O    1     2.6478     5.0036   10 O    0-1-1

   3 O    1     0.9747     1.8419   18 H    0 0 0
   3 O    1     0.9887     1.8684   17 H    0 0 0
   3 O    1     1.7727     3.3498   35 H    0 0 0
   3 O    1     1.8317     3.4615   13 H    0-1-1
   3 O    1     2.7007     5.1036    1 O    0 0-1
   3 O    1     2.7193     5.1387   12 O    1-2 0

   4 O    1     0.9741     1.8408   19 H    0 0 0
   4 O    1     0.9976     1.8852   20 H    0 0 0
   4 O    1     1.6638     3.1441   27 H    0 0 0
   4 O    1     1.7743     3.3529   26 H    0 0 0
   4 O    1     2.6007     4.9146   10 O    0 0 0
   4 O    1     2.6540     5.0153    8 O    0 1 0

   5 O    1     0.9762     1.8448   22 H    0 0 0
   5 O    1     0.9836     1.8588   21 H    0 0 0
   5 O    1     1.6474     3.1132   25 H    0-1 0
   5 O    1     1.9312     3.6495   18 H    0 0 0
   5 O    1     2.6345     4.9784    7 O    0-1 0
   5 O    1     2.6899     5.0832    7 O    0 0 0

   6 O    1     0.9673     1.8280   24 H    0 0 0
   6 O    1     0.9860     1.8632   23 H    0 0 1
   6 O    1     1.6405     3.1002   15 H    0 0 1
   6 O    1     2.1397     4.0435   33 H   -1 1 0
   6 O    1     2.6270     4.9642    2 O    0 1 1
   6 O    1     2.6754     5.0558    2 O    0 0 1

   7 O    1     0.9796     1.8511   26 H    0 0 0
   7 O    1     0.9941     1.8786   25 H    0 0 0
   7 O    1     1.6382     3.0957   29 H    0 0 0
   7 O    1     1.7133     3.2376   21 H    0 0 0
   7 O    1     2.6307     4.9713    9 O    0 0 0
   7 O    1     2.6345     4.9784    5 O    0 1 0

   8 O    1     0.9905     1.8718   27 H    0-1 0
   8 O    1     0.9982     1.8863   28 H    0 0 0
   8 O    1     1.7382     3.2848   16 H    0 0 0
   8 O    1     1.8485     3.4931   19 H    0 0 0
   8 O    1     2.0851     3.9403   24 H    0 0 0
   8 O    1     2.6157     4.9429   12 O    0-1 0

   9 O    1     0.9869     1.8650   30 H    0 0-1
   9 O    1     0.9927     1.8759   29 H    0 0 0
   9 O    1     1.6141     3.0502   32 H    0-1-1
   9 O    1     1.7312     3.2715   14 H    0 0-1
   9 O    1     2.6097     4.9316   10 O    0-1-1
   9 O    1     2.6307     4.9713    7 O    0 0 0

  10 O    1     0.9892     1.8693   31 H    0 0 0
  10 O    1     0.9972     1.8845   32 H    0 0 0
  10 O    1     1.6040     3.0311   20 H    0 0 0
  10 O    1     1.6879     3.1896   30 H    0 0 0
  10 O    1     2.6007     4.9146    4 O    0 0 0
  10 O    1     2.6097     4.9316    9 O    0 1 1

  11 O    1     0.9646     1.8228   33 H    0 0 0
  11 O    1     0.9770     1.8462   34 H    0 0 0
  11 O    1     1.6549     3.1273   36 H    1-1 0
  11 O    1     2.6490     5.0059   12 O    1-1 0
  11 O    1     2.7752     5.2443   12 O    1-2 0
  11 O    1     2.9594     5.5925    6 O    1-1 0

  12 O    1     0.9821     1.8559   35 H   -1 2 0
  12 O    1     0.9951     1.8805   36 H    0 0 0
  12 O    1     1.6178     3.0572   28 H    0 1 0
  12 O    1     1.8117     3.4236   34 H   -1 2 0
  12 O    1     2.6157     4.9429    8 O    0 1 0
  12 O    1     2.6490     5.0059   11 O   -1 1 0

  13 H    1     0.9784     1.8488    1 O    0 0 0
  13 H    1     1.5426     2.9152   14 H    0 0 0
  13 H    1     1.8317     3.4615    3 O    0 1 1
  13 H    1     2.2257     4.2059   17 H    0 0 1
  13 H    1     2.3147     4.3741   17 H    0 1 1
  13 H    1     2.3321     4.4070   18 H    0 1 1

  14 H    1     0.9822     1.8560    1 O    0 0 0
  14 H    1     1.5426     2.9152   13 H    0 0 0
  14 H    1     1.7312     3.2715    9 O    0 0 1
  14 H    1     2.1608     4.0833   17 H    0 0 1
  14 H    1     2.1939     4.1460   29 H    0 0 1
  14 H    1     2.2768     4.3026   22 H    0 0 0

  15 H    1     0.9929     1.8762    2 O    0 1 0
  15 H    1     1.5884     3.0017   16 H    0 1 0
  15 H    1     1.6405     3.1002    6 O    0 0-1
  15 H    1     2.0675     3.9070   31 H    0 0-1
  15 H    1     2.1921     4.1425   24 H    0 0-1
  15 H    1     2.2165     4.1885   23 H    0 0 0

  16 H    1     0.9824     1.8564    2 O    0 0 0
  16 H    1     1.5884     3.0017   15 H    0-1 0
  16 H    1     1.7382     3.2848    8 O    0 0 0
  16 H    1     2.0497     3.8734   28 H    0 0 0
  16 H    1     2.1678     4.0966   27 H    0-1 0
  16 H    1     2.2379     4.2290   31 H    0-1-1

  17 H    1     0.9887     1.8684    3 O    0 0 0
  17 H    1     1.5730     2.9726   18 H    0 0 0
  17 H    1     1.7148     3.2405    1 O    0 0-1
  17 H    1     2.1608     4.0833   14 H    0 0-1
  17 H    1     2.2257     4.2059   13 H    0 0-1
  17 H    1     2.3147     4.3741   13 H    0-1-1

  18 H    1     0.9747     1.8419    3 O    0 0 0
  18 H    1     1.5730     2.9726   17 H    0 0 0
  18 H    1     1.9312     3.6495    5 O    0 0 0
  18 H    1     2.0280     3.8323   35 H    0 0 0
  18 H    1     2.3321     4.4070   13 H    0-1-1
  18 H    1     2.3730     4.4844   21 H    0 0 0

  19 H    1     0.9741     1.8408    4 O    0 0 0
  19 H    1     1.5851     2.9954   20 H    0 0 0
  19 H    1     1.8485     3.4931    8 O    0 0 0
  19 H    1     2.1611     4.0839   27 H    0 0 0
  19 H    1     2.3542     4.4488   27 H    0-1 0
  19 H    1     2.3678     4.4744   26 H    0 0 0

  20 H    1     0.9976     1.8852    4 O    0 0 0
  20 H    1     1.5851     2.9954   19 H    0 0 0
  20 H    1     1.6040     3.0311   10 O    0 0 0
  20 H    1     2.0924     3.9540   31 H    0 0 0
  20 H    1     2.1323     4.0294   26 H    0 0 0
  20 H    1     2.1471     4.0574   27 H    0 0 0

  21 H    1     0.9836     1.8588    5 O    0 0 0
  21 H    1     1.5684     2.9638   22 H    0 0 0
  21 H    1     1.7133     3.2376    7 O    0 0 0
  21 H    1     2.2212     4.1975   25 H    0-1 0
  21 H    1     2.2712     4.2920   25 H    0 0 0
  21 H    1     2.3426     4.4269   26 H    0 0 0

  22 H    1     0.9762     1.8448    5 O    0 0 0
  22 H    1     1.5684     2.9638   21 H    0 0 0
  22 H    1     1.9323     3.6516    1 O    0 0 0
  22 H    1     2.2011     4.1595   25 H    0-1 0
  22 H    1     2.2768     4.3026   14 H    0 0 0
  22 H    1     2.5644     4.8460   13 H    0 0 0

  23 H    1     0.9860     1.8632    6 O    0 0-1
  23 H    1     1.5482     2.9256   24 H    0 0-1
  23 H    1     1.6998     3.2121    2 O    0 0 0
  23 H    1     2.2165     4.1885   15 H    0 0 0
  23 H    1     2.2611     4.2729   15 H    0-1 0
  23 H    1     2.3051     4.3561   16 H    0 0 0

  24 H    1     0.9673     1.8280    6 O    0 0 0
  24 H    1     1.5482     2.9256   23 H    0 0 1
  24 H    1     2.0851     3.9403    8 O    0 0 0
  24 H    1     2.1912     4.1407   28 H    0 0 0
  24 H    1     2.1921     4.1425   15 H    0 0 1
  24 H    1     2.4052     4.5452   33 H   -1 1 0

  25 H    1     0.9941     1.8786    7 O    0 0 0
  25 H    1     1.6062     3.0353   26 H    0 0 0
  25 H    1     1.6474     3.1132    5 O    0 1 0
  25 H    1     2.1385     4.0411   29 H    0 0 0
  25 H    1     2.2011     4.1595   22 H    0 1 0
  25 H    1     2.2212     4.1975   21 H    0 1 0

  26 H    1     0.9796     1.8511    7 O    0 0 0
  26 H    1     1.6062     3.0353   25 H    0 0 0
  26 H    1     1.7743     3.3529    4 O    0 0 0
  26 H    1     2.1323     4.0294   20 H    0 0 0
  26 H    1     2.1346     4.0337   29 H    0 0 0
  26 H    1     2.3426     4.4269   21 H    0 0 0

  27 H    1     0.9905     1.8718    8 O    0 1 0
  27 H    1     1.5990     3.0217   28 H    0 1 0
  27 H    1     1.6638     3.1441    4 O    0 0 0
  27 H    1     2.1471     4.0574   20 H    0 0 0
  27 H    1     2.1611     4.0839   19 H    0 0 0
  27 H    1     2.1678     4.0966   16 H    0 1 0

  28 H    1     0.9982     1.8863    8 O    0 0 0
  28 H    1     1.5990     3.0217   27 H    0-1 0
  28 H    1     1.6178     3.0572   12 O    0-1 0
  28 H    1     2.0497     3.8734   16 H    0 0 0
  28 H    1     2.1912     4.1407   24 H    0 0 0
  28 H    1     2.2820     4.3123   36 H    0-1 0

  29 H    1     0.9927     1.8759    9 O    0 0 0
  29 H    1     1.5769     2.9798   30 H    0 0-1
  29 H    1     1.6382     3.0957    7 O    0 0 0
  29 H    1     2.1106     3.9885   32 H    0-1-1
  29 H    1     2.1346     4.0337   26 H    0 0 0
  29 H    1     2.1385     4.0411   25 H    0 0 0

  30 H    1     0.9869     1.8650    9 O    0 0 1
  30 H    1     1.5769     2.9798   29 H    0 0 1
  30 H    1     1.6879     3.1896   10 O    0 0 0
  30 H    1     2.2030     4.1631   32 H    0-1 0
  30 H    1     2.2704     4.2904   32 H    0 0 0
  30 H    1     2.3051     4.3560   31 H    0 0 0

  31 H    1     0.9892     1.8693   10 O    0 0 0
  31 H    1     1.5859     2.9969   32 H    0 0 0
  31 H    1     1.6683     3.1526    2 O    0 1 1
  31 H    1     2.0675     3.9070   15 H    0 0 1
  31 H    1     2.0924     3.9540   20 H    0 0 0
  31 H    1     2.2379     4.2290   16 H    0 1 1

  32 H    1     0.9972     1.8845   10 O    0 0 0
  32 H    1     1.5859     2.9969   31 H    0 0 0
  32 H    1     1.6141     3.0502    9 O    0 1 1
  32 H    1     2.1106     3.9885   29 H    0 1 1
  32 H    1     2.1763     4.1127   20 H    0 0 0
  32 H    1     2.2030     4.1631   30 H    0 1 0

  33 H    1     0.9646     1.8228   11 O    0 0 0
  33 H    1     1.5234     2.8788   34 H    0 0 0
  33 H    1     2.1397     4.0435    6 O    1-1 0
  33 H    1     2.2074     4.1714   36 H    1-1 0
  33 H    1     2.4052     4.5452   24 H    1-1 0
  33 H    1     2.8281     5.3443   13 H    0 0 0

  34 H    1     0.9770     1.8462   11 O    0 0 0
  34 H    1     1.5234     2.8788   33 H    0 0 0
  34 H    1     1.8117     3.4236   12 O    1-2 0
  34 H    1     2.2039     4.1648   36 H    1-1 0
  34 H    1     2.2379     4.2289   35 H    0 0 0
  34 H    1     2.3171     4.3788   36 H    1-2 0

  35 H    1     0.9821     1.8559   12 O    1-2 0
  35 H    1     1.5754     2.9771   36 H    1-2 0
  35 H    1     1.7727     3.3498    3 O    0 0 0
  35 H    1     2.0280     3.8323   18 H    0 0 0
  35 H    1     2.2379     4.2289   34 H    0 0 0
  35 H    1     2.3043     4.3544   28 H    1-1 0

  36 H    1     0.9951     1.8805   12 O    0 0 0
  36 H    1     1.5754     2.9771   35 H   -1 2 0
  36 H    1     1.6549     3.1273   11 O   -1 1 0
  36 H    1     2.2039     4.1648   34 H   -1 1 0
  36 H    1     2.2074     4.1714   33 H   -1 1 0
  36 H    1     2.2820     4.3123   28 H    0 1 0


 SYMMETRY ALLOWED INTERNAL DEGREE(S) OF FREEDOM: 105
 TTTTTTTTTTTTTTTTTTTTTTTTTTTTTT SYMM        TELAPSE        0.10 TCPU        0.06
 TTTTTTTTTTTTTTTTTTTTTTTTTTTTTT INT_SCREEN  TELAPSE        0.11 TCPU        0.06

 DFT PARAMETERS

     ATOM       ELECTRONS   NET CHARGE   R(ANGSTROM)
   1   8  O       8.0000      0.0000     0.74000000
  13   1  H       1.0000      0.0000     1.11000000

 SIZE OF GRID=     832607
 TTTTTTTTTTTTTTTTTTTTTTTTTTTTTT MAKE_GRID2  TELAPSE       11.22 TCPU       11.17
 BECKE WEIGHT FUNCTION
 RADSAFE =     2.00
 TOLERANCES - DENSITY:10**- 6; POTENTIAL:10**- 9; GRID WGT:10**-14

 RADIAL INTEGRATION  - INTERVALS (POINTS,UPPER LIMIT):            1( 75,  4.0*R)

 ANGULAR INTEGRATION - INTERVALS (ACCURACY LEVEL [N. POINTS] UPPER LIMIT):
  1(  4[  86]   0.2)  2(  8[ 194]   0.5)  3( 12[ 350]   0.9)  4( 16[ 974]   3.5)
  5( 12[ 350]9999.0)
 TTTTTTTTTTTTTTTTTTTTTTTTTTTTTT INT_CALC    TELAPSE       11.25 TCPU       11.20
 EEEEEEEEEE INT_CALC TERMINATION  DATE 25 03 2019 TIME 17:49:25.4

 *******************************************************************************
 !drive by JGB                                                                   
 CRYSTAL - SCF - TYPE OF CALCULATION :  RESTRICTED CLOSED SHELL
 *******************************************************************************

 CAPPA:IS1  1;IS2  2;IS3  2; K PTS MONK NET   4; SYMMOPS:K SPACE   2;G SPACE   1

 TTTTTTTTTTTTTTTTTTTTTTTTTTTTTT SDIK        TELAPSE       11.51 TCPU       11.45

 AAAAAAAAAAAAAAAAAAAAAAAAAAAAAAAAAAAAAAAAAAAAAAAAAAAAAAAAAAAAAAAAAAAAAAAAAAAAAAA
         ATOMIC WAVEFUNCTION(S)


 NUCLEAR CHARGE  8.0  SYMMETRY SPECIES            S    P
 N. ELECTRONS    8.0  NUMBER OF PRIMITIVE GTOS    8    4
                      NUMBER OF CONTRACTED GTOS   4    2
                      NUMBER OF CLOSED SHELLS     2    0
                      OPEN SHELL OCCUPATION       0    4

  ZNUC SCFIT  TOTAL HF ENERGY   KINETIC ENERGY   VIRIAL THEOREM ACCURACY
   8.0  12   -7.477373220E+01  7.477365593E+01 -2.000001020E+00  3.8E-06

 NUCLEAR CHARGE  1.0  SYMMETRY SPECIES            S
 N. ELECTRONS    1.0  NUMBER OF PRIMITIVE GTOS    4
                      NUMBER OF CONTRACTED GTOS   2
                      NUMBER OF CLOSED SHELLS     0
                      OPEN SHELL OCCUPATION       1

  ZNUC SCFIT  TOTAL HF ENERGY   KINETIC ENERGY   VIRIAL THEOREM ACCURACY
   1.0   1   -4.977266687E-01  5.190767460E-01 -1.958869132E+00  1.8E-16

 AAAAAAAAAAAAAAAAAAAAAAAAAAAAAAAAAAAAAAAAAAAAAAAAAAAAAAAAAAAAAAAAAAAAAAAAAAAAAAA

 CHARGE NORMALIZATION FACTOR   1.00000000
 TOTAL ATOMIC CHARGES:
   8.0000000   8.0000000   8.0000000   8.0000000   8.0000000   8.0000000
   8.0000000   8.0000000   8.0000000   8.0000000   8.0000000   8.0000000
   1.0000000   1.0000000   1.0000000   1.0000000   1.0000000   1.0000000
   1.0000000   1.0000000   1.0000000   1.0000000   1.0000000   1.0000000
   1.0000000   1.0000000   1.0000000   1.0000000   1.0000000   1.0000000
   1.0000000   1.0000000   1.0000000   1.0000000   1.0000000   1.0000000
 TTTTTTTTTTTTTTTTTTTTTTTTTTTTTT MOQGAD      TELAPSE       13.61 TCPU       13.56
 TTTTTTTTTTTTTTTTTTTTTTTTTTTTTT SHELLXN     TELAPSE       29.20 TCPU       29.13
 TTTTTTTTTTTTTTTTTTTTTTTTTTTTTT MONMO3      TELAPSE       30.64 TCPU       30.57
 NUMERICALLY INTEGRATED DENSITY    119.9999997257
 TTTTTTTTTTTTTTTTTTTTTTTTTTTTTT NUMDFT      TELAPSE       31.85 TCPU       31.78
 CYC   0 ETOT(AU) -9.159202469097E+02 DETOT -9.16E+02 tst  0.00E+00 PX  1.00E+00
 TTTTTTTTTTTTTTTTTTTTTTTTTTTTTT DIIS        TELAPSE       31.86 TCPU       31.79
 TTTTTTTTTTTTTTTTTTTTTTTTTTTTTT FDIK        TELAPSE       31.99 TCPU       31.83
 INSULATING STATE
 TOP OF VALENCE BANDS -    BAND     60; K    2; EIG -4.1514780E-01 AU
 TOP OF VALENCE BANDS -    BAND     60; K    1; EIG -4.1823412E-01 AU
 BOTTOM OF VIRTUAL BANDS - BAND     61; K    1; EIG -6.6755656E-02 AU
 INDIRECT ENERGY BAND GAP:   9.4802 eV
 TTTTTTTTTTTTTTTTTTTTTTTTTTTTTT PDIG        TELAPSE       31.99 TCPU       31.84
 CHARGE NORMALIZATION FACTOR   1.00000000
 TOTAL ATOMIC CHARGES:
   9.0734075   9.0745407   9.0689170   9.0714980   9.0629160   9.0707639
   9.0689930   9.0815888   9.0776011   9.0782957   9.0675718   9.0730740
   0.4655736   0.4687531   0.4625549   0.4645038   0.4653336   0.4685976
   0.4566795   0.4631590   0.4622340   0.4609243   0.4608951   0.4715547
   0.4614856   0.4609972   0.4678027   0.4565804   0.4659825   0.4597517
   0.4666378   0.4597174   0.4636498   0.4696925   0.4633532   0.4644186
 TTTTTTTTTTTTTTTTTTTTTTTTTTTTTT MOQGAD      TELAPSE       32.00 TCPU       31.85
 TTTTTTTTTTTTTTTTTTTTTTTTTTTTTT SHELLXN     TELAPSE       48.03 TCPU       47.87
 TTTTTTTTTTTTTTTTTTTTTTTTTTTTTT MONMO3      TELAPSE       49.48 TCPU       49.32
 NUMERICALLY INTEGRATED DENSITY    119.9999988423
 TTTTTTTTTTTTTTTTTTTTTTTTTTTTTT NUMDFT      TELAPSE       52.07 TCPU       51.91
 CYC   1 ETOT(AU) -9.152400636388E+02 DETOT  6.80E-01 tst  0.00E+00 PX  1.00E+00
 TTTTTTTTTTTTTTTTTTTTTTTTTTTTTT DIIS        TELAPSE       52.10 TCPU       51.94
 DIIS TEST: 0.12351E+01 AT SCF   CYCLE   1 - MIX   30 %
 TTTTTTTTTTTTTTTTTTTTTTTTTTTTTT FDIK        TELAPSE       52.13 TCPU       51.97
 INSULATING STATE
 TOP OF VALENCE BANDS -    BAND     60; K    2; EIG -2.9830482E-01 AU
 TOP OF VALENCE BANDS -    BAND     60; K    1; EIG -3.0314225E-01 AU
 BOTTOM OF VIRTUAL BANDS - BAND     61; K    1; EIG -7.6850893E-03 AU
 INDIRECT ENERGY BAND GAP:   7.9082 eV
 TTTTTTTTTTTTTTTTTTTTTTTTTTTTTT PDIG        TELAPSE       52.13 TCPU       51.97
 CHARGE NORMALIZATION FACTOR   1.00000000
 TOTAL ATOMIC CHARGES:
   8.8423309   8.8758806   8.8503284   8.8644961   8.8497169   8.8360727
   8.8727873   8.8796159   8.8790034   8.8858312   8.8114605   8.8784858
   0.5764333   0.5813030   0.5604071   0.5697556   0.5700458   0.5858917
   0.5669121   0.5610102   0.5651941   0.5607616   0.5624552   0.6060660
   0.5564639   0.5668321   0.5690910   0.5536970   0.5649976   0.5605373
   0.5701617   0.5526242   0.5919425   0.5890705   0.5669769   0.5653599
 TTTTTTTTTTTTTTTTTTTTTTTTTTTTTT MOQGAD      TELAPSE       52.14 TCPU       51.98
 TTTTTTTTTTTTTTTTTTTTTTTTTTTTTT SHELLXN     TELAPSE       68.19 TCPU       68.01
 TTTTTTTTTTTTTTTTTTTTTTTTTTTTTT MONMO3      TELAPSE       69.63 TCPU       69.45
 NUMERICALLY INTEGRATED DENSITY    120.0000002706
 TTTTTTTTTTTTTTTTTTTTTTTTTTTTTT NUMDFT      TELAPSE       72.17 TCPU       71.98
 CYC   2 ETOT(AU) -9.154936796828E+02 DETOT -2.54E-01 tst  1.86E-03 PX  1.32E-01
 TTTTTTTTTTTTTTTTTTTTTTTTTTTTTT DIIS        TELAPSE       72.18 TCPU       72.00
 DIIS TEST: 0.26298E+00 AT SCF   CYCLE   2 - DIIS ACTIVE - HISTORY:     2 CYCLES
 TTTTTTTTTTTTTTTTTTTTTTTTTTTTTT FDIK        TELAPSE       72.22 TCPU       72.00
 INSULATING STATE
 TOP OF VALENCE BANDS -    BAND     60; K    2; EIG -3.4814816E-01 AU
 TOP OF VALENCE BANDS -    BAND     60; K    1; EIG -3.5222012E-01 AU
 BOTTOM OF VIRTUAL BANDS - BAND     61; K    1; EIG -8.8637282E-03 AU
 INDIRECT ENERGY BAND GAP:   9.2324 eV
 TTTTTTTTTTTTTTTTTTTTTTTTTTTTTT PDIG        TELAPSE       72.22 TCPU       72.01
 CHARGE NORMALIZATION FACTOR   1.00000000
 TOTAL ATOMIC CHARGES:
   8.9239872   8.9406908   8.9271493   8.9357588   8.9266507   8.9154388
   8.9380289   8.9550421   8.9458873   8.9500190   8.8970171   8.9407198
   0.5361393   0.5425062   0.5260018   0.5354980   0.5311785   0.5482249
   0.5337448   0.5263128   0.5292076   0.5228087   0.5257844   0.5661417
   0.5227451   0.5329308   0.5325749   0.5188376   0.5307934   0.5267693
   0.5347606   0.5202193   0.5525644   0.5460315   0.5331018   0.5287328
 TTTTTTTTTTTTTTTTTTTTTTTTTTTTTT MOQGAD      TELAPSE       72.23 TCPU       72.01
 TTTTTTTTTTTTTTTTTTTTTTTTTTTTTT SHELLXN     TELAPSE       88.27 TCPU       88.04
 TTTTTTTTTTTTTTTTTTTTTTTTTTTTTT MONMO3      TELAPSE       89.73 TCPU       89.50
 NUMERICALLY INTEGRATED DENSITY    119.9999997805
 TTTTTTTTTTTTTTTTTTTTTTTTTTTTTT NUMDFT      TELAPSE       92.30 TCPU       92.07
 CYC   3 ETOT(AU) -9.155620473788E+02 DETOT -6.84E-02 tst  1.92E-04 PX  5.24E-02
 TTTTTTTTTTTTTTTTTTTTTTTTTTTTTT DIIS        TELAPSE       92.32 TCPU       92.09
 DIIS TEST: 0.17541E-02 AT SCF   CYCLE   3 - DIIS ACTIVE - HISTORY:     3 CYCLES
 TTTTTTTTTTTTTTTTTTTTTTTTTTTTTT FDIK        TELAPSE       92.35 TCPU       92.11
 INSULATING STATE
 TOP OF VALENCE BANDS -    BAND     60; K    2; EIG -3.4401932E-01 AU
 TOP OF VALENCE BANDS -    BAND     60; K    1; EIG -3.4814731E-01 AU
 BOTTOM OF VIRTUAL BANDS - BAND     61; K    1; EIG -6.3081065E-03 AU
 INDIRECT ENERGY BAND GAP:   9.1896 eV
 TTTTTTTTTTTTTTTTTTTTTTTTTTTTTT PDIG        TELAPSE       92.35 TCPU       92.11
 CHARGE NORMALIZATION FACTOR   1.00000000
 TOTAL ATOMIC CHARGES:
   8.9161468   8.9448790   8.9215570   8.9335308   8.9202485   8.9070035
   8.9409646   8.9510787   8.9476807   8.9542168   8.8840706   8.9471233
   0.5396733   0.5447319   0.5262189   0.5347394   0.5339452   0.5510065
   0.5345362   0.5262086   0.5309965   0.5263787   0.5284314   0.5689618
   0.5229139   0.5323672   0.5336773   0.5192754   0.5299352   0.5258152
   0.5330342   0.5188912   0.5580386   0.5499675   0.5326436   0.5291118
 TTTTTTTTTTTTTTTTTTTTTTTTTTTTTT MOQGAD      TELAPSE       92.36 TCPU       92.12
 TTTTTTTTTTTTTTTTTTTTTTTTTTTTTT SHELLXN     TELAPSE      108.39 TCPU      108.14
 TTTTTTTTTTTTTTTTTTTTTTTTTTTTTT MONMO3      TELAPSE      109.84 TCPU      109.59
 NUMERICALLY INTEGRATED DENSITY    119.9999998238
 TTTTTTTTTTTTTTTTTTTTTTTTTTTTTT NUMDFT      TELAPSE      112.41 TCPU      112.16
 CYC   4 ETOT(AU) -9.155622307777E+02 DETOT -1.83E-04 tst  1.93E-06 PX  6.05E-03
 TTTTTTTTTTTTTTTTTTTTTTTTTTTTTT DIIS        TELAPSE      112.43 TCPU      112.18
 DIIS TEST: 0.62257E-03 AT SCF   CYCLE   4 - DIIS ACTIVE - HISTORY:     4 CYCLES
 TTTTTTTTTTTTTTTTTTTTTTTTTTTTTT FDIK        TELAPSE      112.45 TCPU      112.19
 INSULATING STATE
 TOP OF VALENCE BANDS -    BAND     60; K    2; EIG -3.4620048E-01 AU
 TOP OF VALENCE BANDS -    BAND     60; K    1; EIG -3.5023967E-01 AU
 BOTTOM OF VIRTUAL BANDS - BAND     61; K    1; EIG -6.0748244E-03 AU
 INDIRECT ENERGY BAND GAP:   9.2553 eV
 TTTTTTTTTTTTTTTTTTTTTTTTTTTTTT PDIG        TELAPSE      112.46 TCPU      112.19
 CHARGE NORMALIZATION FACTOR   1.00000000
 TOTAL ATOMIC CHARGES:
   8.9200210   8.9398279   8.9234891   8.9336662   8.9230599   8.9115037
   8.9368721   8.9523519   8.9450100   8.9498733   8.8919311   8.9395701
   0.5381942   0.5438183   0.5270917   0.5360175   0.5328789   0.5501812
   0.5346921   0.5268666   0.5305224   0.5252362   0.5274324   0.5676485
   0.5237495   0.5335600   0.5336208   0.5196678   0.5313180   0.5272673
   0.5349977   0.5205607   0.5551810   0.5480696   0.5342231   0.5300280
 TTTTTTTTTTTTTTTTTTTTTTTTTTTTTT MOQGAD      TELAPSE      112.46 TCPU      112.20
 TTTTTTTTTTTTTTTTTTTTTTTTTTTTTT SHELLXN     TELAPSE      128.49 TCPU      128.22
 TTTTTTTTTTTTTTTTTTTTTTTTTTTTTT MONMO3      TELAPSE      129.98 TCPU      129.70
 NUMERICALLY INTEGRATED DENSITY    119.9999998082
 TTTTTTTTTTTTTTTTTTTTTTTTTTTTTT NUMDFT      TELAPSE      132.54 TCPU      132.27
 CYC   5 ETOT(AU) -9.155623053596E+02 DETOT -7.46E-05 tst  6.67E-07 PX  3.84E-03
 TTTTTTTTTTTTTTTTTTTTTTTTTTTTTT DIIS        TELAPSE      132.56 TCPU      132.28
 DIIS TEST: 0.31757E-03 AT SCF   CYCLE   5 - DIIS ACTIVE - HISTORY:     5 CYCLES
 TTTTTTTTTTTTTTTTTTTTTTTTTTTTTT FDIK        TELAPSE      138.97 TCPU      132.29
 INSULATING STATE
 TOP OF VALENCE BANDS -    BAND     60; K    2; EIG -3.4534775E-01 AU
 TOP OF VALENCE BANDS -    BAND     60; K    1; EIG -3.4940957E-01 AU
 BOTTOM OF VIRTUAL BANDS - BAND     61; K    1; EIG -6.0897932E-03 AU
 INDIRECT ENERGY BAND GAP:   9.2317 eV
 TTTTTTTTTTTTTTTTTTTTTTTTTTTTTT PDIG        TELAPSE      138.97 TCPU      132.29
 CHARGE NORMALIZATION FACTOR   1.00000000
 TOTAL ATOMIC CHARGES:
   8.9188514   8.9420258   8.9230405   8.9335523   8.9220961   8.9098367
   8.9385839   8.9517034   8.9457603   8.9511845   8.8889472   8.9431671
   0.5385625   0.5441385   0.5266339   0.5354717   0.5331111   0.5504322
   0.5347084   0.5266877   0.5306604   0.5254637   0.5276638   0.5682775
   0.5233498   0.5330982   0.5337414   0.5194592   0.5308732   0.5268445
   0.5344128   0.5200144   0.5562216   0.5486668   0.5333156   0.5294419
 TTTTTTTTTTTTTTTTTTTTTTTTTTTTTT MOQGAD      TELAPSE      138.98 TCPU      132.30
 TTTTTTTTTTTTTTTTTTTTTTTTTTTTTT SHELLXN     TELAPSE      155.14 TCPU      148.32
 TTTTTTTTTTTTTTTTTTTTTTTTTTTTTT MONMO3      TELAPSE      159.76 TCPU      152.93
 NUMERICALLY INTEGRATED DENSITY    119.9999998136
 TTTTTTTTTTTTTTTTTTTTTTTTTTTTTT NUMDFT      TELAPSE      162.33 TCPU      155.50
 CYC   6 ETOT(AU) -9.155623328218E+02 DETOT -2.75E-05 tst  1.17E-07 PX  1.54E-03
 TTTTTTTTTTTTTTTTTTTTTTTTTTTTTT DIIS        TELAPSE      162.35 TCPU      155.52
 DIIS TEST: 0.13974E-04 AT SCF   CYCLE   6 - DIIS ACTIVE - HISTORY:     6 CYCLES
 TTTTTTTTTTTTTTTTTTTTTTTTTTTTTT FDIK        TELAPSE      162.38 TCPU      155.53
 INSULATING STATE
 TOP OF VALENCE BANDS -    BAND     60; K    2; EIG -3.4539867E-01 AU
 TOP OF VALENCE BANDS -    BAND     60; K    1; EIG -3.4946860E-01 AU
 BOTTOM OF VIRTUAL BANDS - BAND     61; K    1; EIG -6.0684397E-03 AU
 INDIRECT ENERGY BAND GAP:   9.2336 eV
 TTTTTTTTTTTTTTTTTTTTTTTTTTTTTT PDIG        TELAPSE      162.38 TCPU      155.53
 CHARGE NORMALIZATION FACTOR   1.00000000
 TOTAL ATOMIC CHARGES:
   8.9187201   8.9416001   8.9229170   8.9337074   8.9222259   8.9100131
   8.9383628   8.9521216   8.9460780   8.9515137   8.8893193   8.9421686
   0.5386291   0.5441400   0.5267361   0.5355451   0.5331803   0.5504787
   0.5346283   0.5265808   0.5306357   0.5254817   0.5276592   0.5681758
   0.5233943   0.5331220   0.5336162   0.5194398   0.5307842   0.5267120
   0.5343050   0.5199103   0.5561361   0.5486600   0.5336375   0.5296641
 TTTTTTTTTTTTTTTTTTTTTTTTTTTTTT MOQGAD      TELAPSE      162.39 TCPU      155.54
 TTTTTTTTTTTTTTTTTTTTTTTTTTTTTT SHELLXN     TELAPSE      178.43 TCPU      171.55
 TTTTTTTTTTTTTTTTTTTTTTTTTTTTTT MONMO3      TELAPSE      179.89 TCPU      173.01
 NUMERICALLY INTEGRATED DENSITY    119.9999998136
 TTTTTTTTTTTTTTTTTTTTTTTTTTTTTT NUMDFT      TELAPSE      182.45 TCPU      175.58
 CYC   7 ETOT(AU) -9.155623333348E+02 DETOT -5.13E-07 tst  5.16E-09 PX  4.34E-04
 TTTTTTTTTTTTTTTTTTTTTTTTTTTTTT DIIS        TELAPSE      182.47 TCPU      175.60
 DIIS TEST: 0.14454E-05 AT SCF   CYCLE   7 - DIIS ACTIVE - HISTORY:     7 CYCLES
 TTTTTTTTTTTTTTTTTTTTTTTTTTTTTT FDIK        TELAPSE      182.50 TCPU      175.62
 INSULATING STATE
 TOP OF VALENCE BANDS -    BAND     60; K    2; EIG -3.4546642E-01 AU
 TOP OF VALENCE BANDS -    BAND     60; K    1; EIG -3.4952366E-01 AU
 BOTTOM OF VIRTUAL BANDS - BAND     61; K    1; EIG -6.0654693E-03 AU
 INDIRECT ENERGY BAND GAP:   9.2356 eV
 TTTTTTTTTTTTTTTTTTTTTTTTTTTTTT PDIG        TELAPSE      182.50 TCPU      175.63
 CHARGE NORMALIZATION FACTOR   1.00000000
 TOTAL ATOMIC CHARGES:
   8.9190176   8.9418617   8.9230839   8.9336000   8.9221893   8.9100264
   8.9384431   8.9516962   8.9456576   8.9510225   8.8892088   8.9429074
   0.5385204   0.5440862   0.5266760   0.5355160   0.5330809   0.5504028
   0.5347105   0.5266885   0.5306369   0.5254545   0.5276289   0.5681996
   0.5233807   0.5331299   0.5337321   0.5194781   0.5309148   0.5268909
   0.5344508   0.5200930   0.5561440   0.5486022   0.5333970   0.5294710
 TTTTTTTTTTTTTTTTTTTTTTTTTTTTTT MOQGAD      TELAPSE      182.51 TCPU      175.63
 TTTTTTTTTTTTTTTTTTTTTTTTTTTTTT SHELLXN     TELAPSE      198.53 TCPU      191.64
 +++ ENERGIES IN A.U. +++
 ::: EXT EL-POLE                                  -8.6314049599541E+02
 ::: EXT EL-SPHEROPOLE                             1.0456435013707E+01
 ::: BIELET ZONE E-E                               1.1164607144180E+03
 ::: TOTAL E-E                                     2.6377665343635E+02
 ::: TOTAL E-N + N-E                              -1.8564512184921E+03
 ::: TOTAL N-N                                    -1.6400967850042E+02
 ::: KINETIC ENERGY                                9.0979599851071E+02
 ::: PSEUDO TOTAL   ENERGY                        -8.4688824504548E+02
 ::: VIRIAL COEFFICIENT                            1.0358105070368E+00
 TTTTTTTTTTTTTTTTTTTTTTTTTTTTTT MONMO3      TELAPSE      199.99 TCPU      193.11
 NUMERICALLY INTEGRATED DENSITY    119.9999998131
 TTTTTTTTTTTTTTTTTTTTTTTTTTTTTT NUMDFT      TELAPSE      202.58 TCPU      195.69
 CYC   8 ETOT(AU) -9.155623336524E+02 DETOT -3.18E-07 tst  3.70E-09 PX  4.34E-04

 == SCF ENDED - CONVERGENCE ON ENERGY      E(AU) -9.1556233365241E+02 CYCLES   8


 ENERGY EXPRESSION=HARTREE+FOCK EXCH*0.00000+(HSE-3c     EXCH)*1.00000+PBEh-3c    CORR


 TOTAL ENERGY(DFT)(AU)(  8) -9.1556233365241E+02 DE-3.2E-07 tester 3.7E-09
 TTTTTTTTTTTTTTTTTTTTTTTTTTTTTT EDFT        TELAPSE      202.58 TCPU      195.69
 
 INFORMATION **** DFTD3 ENERGY **** CALCULATE DFTD3 ENERGY

           DFT-D V3(BJ)
 DF                                         hse3c     
 parameters
 s6       :    1.0000
 s8       :    0.0000
 a1       :    0.4411
 a2       :    4.5182
 k1 k3    :   16.0000   -4.0000
 Cutoff   :   50.2022
 CN-Cutoff:   21.1671
 
 Edisp /kcal,au:   -20.5927 -0.03281649

 E6    /kcal :   -22.0197
 E8    /kcal :     0.0000
 E6(ABC) "   :   1.427070
 
 INFORMATION **** DFTD3 ENERGY **** NORMAL TERMINATION OF DFTD3 MODULE

 GCP ENERGY CALCULATION
  level           hse3c               basis:hse3c
  Nbf            228
  Atoms           36

  Parameters: 
  sigma     1.0000
  eta       1.4086
  alpha     0.2908
  beta      1.9526

  dmp_scal      4.0000
  dmp_exp       6.0000
 cutoffs: 
   distance [bohr] 60.0
   noise    [a.u.] 2.2E-16
 SR-damping   T
 ** gCP correction **
  Egcp:        0.1514538205 / (a.u.) ||      95.0387 / (kcal/mol)
 INFORMATION **** GCP **** NORMAL TERMINATION OF GCP MODULE

 *******************************************************************************

 DFT-D3-GCP DISPERSION AND COUNTERPOISE CORRECTION

 D3 DISPERSION ENERGY (AU)      -3.2816494161511E-02
 GCP ENERGY (AU)                 1.5145382051434E-01
 TOTAL ENERGY + DISP + GCP (AU) -9.1544369632606E+02

 *******************************************************************************

 EIGENVECTORS IN FORTRAN UNIT  8
 TTTTTTTTTTTTTTTTTTTTTTTTTTTTTT END         TELAPSE      203.73 TCPU      196.69
 EEEEEEEEEE TERMINATION  DATE 25 03 2019 TIME 17:52:37.9
NODE    0 CPU TIME =       196.685
NODE    1 CPU TIME =       203.226
NODE    2 CPU TIME =       203.224
NODE    3 CPU TIME =       203.142
NODE    4 CPU TIME =       203.093
NODE    5 CPU TIME =       203.149
NODE    6 CPU TIME =       201.058
NODE    7 CPU TIME =       199.414
    TOTAL CPU TIME =      1612.991
