 PROCESS            0  OF            8  WORKING
 PROCESS            6  OF            8  WORKING
 PROCESS            5  OF            8  WORKING
 PROCESS            1  OF            8  WORKING
 PROCESS            7  OF            8  WORKING

         
 *******************************************************************************
 *                                                                             *
 *                               CRYSTAL17                                     *
 *                      public : 1.0.1 - Feb 1st, 2017                         *
 *                       HTTP://WWW.CRYSTAL.UNITO.IT                           *
 *                                                                             *
 *                              MAIN AUTHORS                                   *
 *                                                                             *
 *  R. DOVESI(1,11), V.R. SAUNDERS(2), C. ROETTI(1,11), R. ORLANDO(1,11),      *
 *  C.M. ZICOVICH-WILSON(1,3), F. PASCALE(4), B. CIVALLERI(1,11),              *
 *  K. DOLL(5), N.M. HARRISON(2,6), I.J. BUSH(7), Ph. D'ARCO(8),               *
 *  M. LLUNELL(9), M. CAUSA'(10), Y. NOEL(8), L. MASCHIO(1,11), A. ERBA(1,11)  *
 *  M. RE'RAT(14), S. CASASSA(1,11)                                            *
 *                                                                             *
 *        CONTRIBUTIONS TO THE CODE HAVE ALSO BEEN GIVEN BY                    *
 *                                                                             *
 *  M. FERRABONE(1,11), M. DE LA PIERRE(1,11), M. FERRERO(1,11),               *
 *  J. BAIMA(1,11), E. ALBANESE(1,11), M.F. PEINTINGER(12), R. BAST(13),       *
 *  B. KIRTMAN(15), V. LACIVITA(1,11), R. DEMICHELIS(1,16)                     *
 *  G. BRANDEBURG(17), S. SALUSTRO(1,11), G. SANSONE(1,11)                     *
 *  M.T. RUGGIERO(18)                                                          *
 *                                                                             *
 * (1) THEORETICAL CHEMISTRY GROUP - UNIVERSITA' DI TORINO - TORINO (ITALY)    *

 * (2) COMPUTATIONAL SCIENCE & ENGINEERING DEPARTMENT - STFC DARESBURY (UK)    *
 * (3) UNIVERSIDAD AUTONOMA DEL ESTADO DE MORELOS - CUERNAVACA (MEXICO)        *
 * (4) UNIVERSITE' DE LORRAINE - NANCY (FRANCE)                                *
 * (5) UNIVERSITAET STUTTGART- STUTTGART (GERMANY)                             *
 * (6) IMPERIAL COLLEGE - LONDON (UK)                                          *
 * (7) OXFORD E-RESEARCH CENTRE - OXFORD (UK)                                  *
 * (8) UPMC - SORBONNE UNIVERSITES - PARIS (FRANCE)                            *
 * (9) UNIVERSIDAD DE BARCELONA - BARCELONA (SPAIN)                            *
 *(10) UNIVERSITA' DI NAPOLI "FEDERICO II" - NAPOLI (ITALY)                    *
 *(11) NIS - NANOSTRUCTURED INTERFACES AND SURFACES - TORINO (ITALY)           *
 *(12) MPI FUER CHEMISCHE ENERGIEKONVERSION - MUELHEIM AN DER RUHR (GERMANY)   *
 *(13) UNIVERSITY OF TROMSO - TROMSO (NORWAY)                                  *
 *(14) UNIVERSITE' DE PAU ET DES PAYS DE L'ADOUR - PAU (FRANCE)                *
 *(15) UNIVERSITY OF CALIFORNIA SANTA BARBARA - SANTA BARBARA (USA)            *
 *(16) CURTIN UNIVERSITY - PERTH (AUSTRALIA)                                   *
 *(17) UNIVERSITY COLLEGE LONDON - LONDON (UK)                                 *
 *(18) CAMBRIDGE UNIVERSITY - CAMBRIDGE (UK)                                   *
 *                                                                             *
 *******************************************************************************
 EEEEEEEEEE STARTING  DATE 25 03 2019 TIME 17:52:24.1
 PROCESS            3  OF            8  WORKING
 PROCESS            4  OF            8  WORKING
 PROCESS            2  OF            8  WORKING
 !drive by JGB                                                                   

 CRYSTAL CALCULATION
 (INPUT ACCORDING TO THE INTERNATIONAL TABLES FOR X-RAY CRYSTALLOGRAPHY)
 CRYSTAL FAMILY                       :  TRICLINIC   
 CRYSTAL CLASS  (GROTH - 1921)        :  TRICLINIC PEDIAL                     

 SPACE GROUP (NONCENTROSYMMETRIC)     :  P 1             

 LATTICE PARAMETERS  (ANGSTROMS AND DEGREES) - CONVENTIONAL CELL
        A           B           C        ALPHA        BETA       GAMMA
    14.56400    10.71549    10.50527   119.91308    94.63462    89.12770


 NUMBER OF IRREDUCIBLE ATOMS IN THE CONVENTIONAL CELL:  156

 INPUT COORDINATES

 ATOM AT. N.              COORDINATES
   1   8     7.869108716202E-02  7.288163072350E-01  2.653192995410E-01
   2   8     8.050839577377E-01  2.476177361739E-01  7.180573216788E-01
   3   8     1.358274660121E-01  4.151943083536E-01  8.851092390843E-01
   4   8     8.901536068412E-01  6.329167488280E-01  1.676733041968E-01
   5   8     9.837234181172E-02  5.101912961921E-02  7.253771877898E-01
   6   8     8.957571659717E-01  9.585264308242E-01  1.116144837289E-01
   7   8     9.411729368866E-02  2.075312339437E-01  5.182647358143E-01
   8   8     9.206954522042E-01  7.570787297490E-01  5.421185028419E-01
   9   8     1.009386137138E-01  7.629113430172E-01  5.314103595633E-01
  10   8     8.698971676817E-01  2.513631880240E-01  4.837666460116E-01
  11   8     7.499209193301E-02  9.082233513015E-01  1.616102370386E-01
  12   8     9.231588571382E-01  1.222271451531E-02  5.505906101733E-01
  13   8     1.473067940232E-01  4.512489455644E-01  1.623315740049E-01
  14   8     7.802690566485E-01  6.189524246374E-01  9.430854341858E-01
  15   8     2.013280179656E-02  3.822615324489E-01  2.955692824018E-01
  16   8     9.634176298268E-01  5.058014139725E-01  6.448429915153E-01
  17   8     1.608809884711E-01  1.010041042327E-01  1.302427681724E-01
  18   8     9.787749665578E-01  8.417926053267E-01  8.209344746151E-01
  19   8     9.807742351076E-01  1.299441568707E-01  0.000000000000E+00
  20   8     1.816451406501E-01  8.262575965951E-01  8.660254037844E-01
  21   8     1.355766950485E-01  5.323802612422E-01  5.677787547814E-01
  22   8     8.484753394425E-01  4.908765161687E-01  3.512803510828E-01
  23   8     5.719128371563E-03  5.953306752133E-01  9.272723505419E-01
  24   8     8.773506011515E-01  3.373782265369E-01  1.714277925570E-03
  25   8     3.176173601479E-01  6.820354876856E-01  3.910451333955E-01
  26   8     6.246543625102E-01  1.572743426450E-01  5.954951432046E-01
  27   8     4.005862639216E-01  5.334264151861E-01  7.987087262717E-01
  28   8     7.359883663375E-01  7.624015890996E-01  3.281080477199E-01
  29   8     2.736874807565E-01  9.971170183295E-02  7.222354028815E-01
  30   8     7.340832622971E-01  9.368023350801E-01  2.054389727588E-01
  31   8     2.764100620185E-01  1.063768025197E-01  4.743461308786E-01
  32   8     6.998704295910E-01  8.097137570285E-01  6.100504559461E-01
  33   8     7.157724525708E-01  2.227102889851E-01  3.061610765781E-01
  34   8     3.065858875531E-01  8.331156298096E-01  6.840604806578E-01
  35   8     3.311318413448E-01  8.442651444900E-01  2.591962447342E-01
  36   8     6.245881778155E-01  6.950956049687E-02  8.189501927136E-01
  37   8     4.594080811515E-01  4.715245245493E-01  2.361920087543E-01
  38   8     6.285350227372E-01  4.326349010772E-01  6.377744746608E-01
  39   8     6.231236844969E-01  5.167334352585E-01  1.522763715599E-01
  40   8     5.726703743727E-01  5.431779644494E-01  9.128184059737E-01
  41   8     3.494846587848E-01  2.672300617530E-01  7.176768200560E-04
  42   8     5.767707203760E-01  8.299935344318E-01  2.626870338278E-02
  43   8     3.838513556801E-01  3.256267491657E-01  5.012190909201E-01
  44   8     5.504989839752E-01  6.272241506293E-01  5.440067949113E-01
  45   8     5.223554471492E-01  2.661867709368E-01  3.030201559783E-01
  46   8     4.589549140542E-01  7.620692020855E-01  7.797404513478E-01
  47   8     4.781790554363E-01  9.514753821475E-02  9.883392626948E-01
  48   8     4.976248899682E-01  9.760233085953E-01  2.836640289214E-01
  49   8     2.469034258173E-01  3.484290551421E-01  3.305976059383E-01
  50   8     7.875764579454E-01  6.272990310546E-01  6.963155847438E-01
  51   8     7.155504689280E-01  2.711101455324E-01  7.374121753961E-02
  52   8     2.576300708612E-01  6.472966602691E-01  9.603328924685E-01
  53   1     9.149897883717E-02  7.559277871299E-01  3.696836335666E-01
  54   1     1.052723328562E-01  6.342277156510E-01  2.124940324003E-01
  55   1     7.440604488465E-01  2.021824041512E-01  6.775796092501E-01
  56   1     8.260091893195E-01  2.685181418933E-01  6.442109891601E-01
  57   1     1.298513886752E-01  3.439467476041E-01  7.814806759420E-01
  58   1     8.231046978133E-02  4.792587366364E-01  9.003288646108E-01
  59   1     8.476589078181E-01  6.794642928300E-01  2.442351346576E-01
  60   1     9.514528647296E-01  6.768925060945E-01  2.070269306693E-01
  61   1     1.628053819597E-01  8.242978891178E-02  7.308214312869E-01
  62   1     8.287995414477E-02  8.598675265104E-02  8.245315475340E-01
  63   1     8.377803448412E-01  9.457534587936E-01  1.466365988295E-01
  64   1     8.955425908587E-01  8.831128845136E-01  1.020533427415E-02
  65   1     1.534854593739E-01  1.635091836767E-01  4.921607672120E-01
  66   1     7.481208025787E-02  2.303594399875E-01  4.428829933125E-01
  67   1     9.106763389633E-01  8.473168048283E-01  5.402286022868E-01
  68   1     9.312845883196E-01  7.842853662818E-01  6.468134395686E-01
  69   1     1.098511630084E-01  8.634888313458E-01  6.103674701333E-01
  70   1     3.362642248861E-02  7.463530375206E-01  5.258909456935E-01
  71   1     8.184312744854E-01  2.430281700629E-01  4.128219044588E-01
  72   1     8.978669231621E-01  1.586406699129E-01  4.464503218939E-01
  73   1     8.661708044788E-02  8.530495440410E-01  2.126419832842E-01
  74   1     9.630522347891E-03  9.304656633369E-01  1.663295780479E-01
  75   1     8.842918954033E-01  8.182124351319E-02  6.224223197481E-01
  76   1     9.859765412229E-01  4.504213678678E-02  5.917079778516E-01
  77   1     1.436169578245E-01  4.133375570081E-01  5.584971121142E-02
  78   1     9.204274609419E-02  4.198797827336E-01  1.881668174535E-01
  79   1     7.637547538310E-01  5.187640414549E-01  9.009790604094E-01
  80   1     8.300147824357E-01  6.369686551088E-01  1.955831923516E-02
  81   1     5.248399663468E-02  4.388959638698E-01  3.920827771511E-01
  82   1     9.557671558290E-01  4.113140670878E-01  3.084693279085E-01
  83   1     9.390200190369E-01  4.072424229040E-01  5.826065430108E-01
  84   1     2.545662562959E-02  5.094171215186E-01  6.177815836621E-01
  85   1     1.351317557557E-01  3.317685139232E-02  1.580582747756E-01
  86   1     1.064222764646E-01  1.371464327891E-01  1.010386088685E-01
  87   1     9.770413928381E-01  9.469254524696E-01  8.718544391012E-01
  88   1     4.375981003642E-02  8.205815464814E-01  8.244852098748E-01
  89   1     9.480579848926E-01  2.113447890901E-01  0.000000000000E+00
  90   1     9.516304719744E-01  1.144687142851E-01  7.084827981630E-02
  91   1     1.873044000781E-01  9.225370243837E-01  9.509934683193E-01
  92   1     2.229971538873E-01  8.244576250561E-01  7.956488967786E-01
  93   1     1.385132061399E-01  6.218718701649E-01  5.644564970257E-01
  94   1     1.818490606370E-01  4.696062155291E-01  5.071815096743E-01
  95   1     8.052624748647E-01  4.654930295129E-01  3.993525608200E-01
  96   1     8.671518098961E-01  5.913370211860E-01  4.203011706835E-01
  97   1     3.037407727862E-02  6.928309820402E-01  9.753479940712E-01
  98   1     9.829282792003E-01  5.696253980454E-01  8.261798990211E-01
  99   1     8.878430653676E-01  4.418882794304E-01  6.591715625050E-02
 100   1     8.570851459433E-01  3.179335020459E-01  9.025398065969E-01
 101   1     3.141501994656E-01  7.353827647508E-01  4.993808582208E-01
 102   1     2.571847502851E-01  6.394196681149E-01  3.496323442046E-01
 103   1     6.003207144461E-01  8.372233847210E-02  4.986788067283E-01
 104   1     6.185942607131E-01  2.495794239767E-01  5.979921162637E-01
 105   1     3.856255385344E-01  4.570971250904E-01  6.972068578631E-01
 106   1     3.447102159814E-01  5.658864515166E-01  8.527022413311E-01
 107   1     7.291924421567E-01  7.897774099127E-01  4.302969270408E-01
 108   1     6.946913994947E-01  6.781279071234E-01  2.690214249648E-01
 109   1     2.827816734925E-01  1.092013427603E-01  6.351362369458E-01
 110   1     3.038766197916E-01  1.791828011508E-01  8.125468337634E-01
 111   1     7.341443694326E-01  8.837657919049E-01  2.595920728505E-01
 112   1     6.866356715267E-01  8.884883589013E-01  1.231211294344E-01
 113   1     2.891073953966E-01  1.251420617417E-02  3.903305526883E-01
 114   1     3.207114067994E-01  1.770561390389E-01  4.796263532565E-01
 115   1     6.794800245274E-01  8.996545248620E-01  6.909160155874E-01
 116   1     7.388870569072E-01  7.621889310058E-01  6.522396632143E-01
 117   1     7.133175057757E-01  1.187987021638E-01  2.710654503261E-01
 118   1     7.215716955160E-01  2.329170560222E-01  2.190087373613E-01
 119   1     3.045435760147E-01  9.324769732467E-01  7.034420317822E-01
 120   1     3.661910375147E-01  8.203860391868E-01  7.292952038317E-01
 121   1     3.313712756475E-01  7.869865121675E-01  3.087631335367E-01
 122   1     3.035022929457E-01  7.816172058205E-01  1.591212200673E-01
 123   1     6.123576083373E-01  1.102852296141E-01  7.551916369567E-01
 124   1     6.631721460032E-01  1.413350821303E-01  9.058681984823E-01
 125   1     4.252886981552E-01  5.486851313979E-01  3.098656186806E-01
 126   1     4.158415240177E-01  4.160795002810E-01  1.501132700581E-01
 127   1     6.118544408547E-01  4.796587832153E-01  7.404980109122E-01
 128   1     6.889759302633E-01  4.716283653644E-01  6.413873948140E-01
 129   1     5.653945303337E-01  5.134607290611E-01  1.925460637363E-01
 130   1     6.046995087335E-01  5.198149875632E-01  6.164593982847E-02
 131   1     5.064402526208E-01  5.272711503886E-01  8.806230127009E-01
 132   1     5.815424579308E-01  6.487287365138E-01  9.595839665400E-01
 133   1     3.986768641276E-01  1.966294981895E-01  9.903029689966E-01
 134   1     3.027849502287E-01  2.502438659716E-01  5.053600959527E-02
 135   1     5.423400372716E-01  8.781500439896E-01  1.144953195063E-01
 136   1     5.390846906245E-01  8.319655631638E-01  9.456019109128E-01
 137   1     4.422186126852E-01  3.112298605779E-01  4.574032038729E-01
 138   1     3.404958458019E-01  3.486956934191E-01  4.398630779557E-01
 139   1     6.030490018331E-01  6.892384744397E-01  5.562304808120E-01
 140   1     5.753737000425E-01  5.517808947807E-01  5.609841666084E-01
 141   1     5.888022176474E-01  2.721943710783E-01  3.267837968913E-01
 142   1     5.051178500909E-01  3.491977726397E-01  2.913491344275E-01
 143   1     4.938159171976E-01  7.177037358826E-01  6.905443386818E-01
 144   1     4.352636003442E-01  6.798080562991E-01  7.855891762363E-01
 145   1     5.264806099335E-01  7.732390806734E-02  9.223524867292E-01
 146   1     5.072121828913E-01  1.381935277283E-01  8.786639493314E-02
 147   1     4.396347952821E-01  9.270264723890E-01  2.770078187213E-01
 148   1     4.815707110570E-01  6.463834145338E-02  2.859415390793E-01
 149   1     2.294802978797E-01  3.984829713228E-01  2.769622199396E-01
 150   1     2.169929641974E-01  2.522787285688E-01  2.684707011897E-01
 151   1     8.504911112501E-01  6.010817372655E-01  6.716824835578E-01
 152   1     7.872507031467E-01  6.419308204577E-01  7.966694386863E-01
 153   1     6.815791843125E-01  3.612692562460E-01  1.067658922706E-01
 154   1     7.771394206661E-01  2.951623613120E-01  5.904044472232E-02
 155   1     2.251158980607E-01  7.049300435118E-01  9.226512516502E-01
 156   1     2.166060315049E-01  5.657998768774E-01  9.365469645450E-01

 *******************************************************************************

 << INFORMATION >>: FROM NOW ON, ALL COORDINATES REFER TO THE PRIMITIVE CELL

 *******************************************************************************

 LATTICE PARAMETERS  (ANGSTROMS AND DEGREES) - PRIMITIVE CELL
       A          B          C        ALPHA      BETA     GAMMA        VOLUME
   14.56400   10.71549   10.50527   119.91308  94.63462  89.12770   1415.809789

 COORDINATES OF THE EQUIVALENT ATOMS (FRACTIONAL UNITS)

 N. ATOM EQUIV AT. N.          X                  Y                  Z

   1   1   1    8 O     7.86910871620E-02 -2.71183692765E-01  2.65319299541E-01

   2   2   1    8 O    -1.94916042262E-01  2.47617736174E-01 -2.81942678321E-01

   3   3   1    8 O     1.35827466012E-01  4.15194308354E-01 -1.14890760916E-01

   4   4   1    8 O    -1.09846393159E-01 -3.67083251172E-01  1.67673304197E-01

   5   5   1    8 O     9.83723418117E-02  5.10191296192E-02 -2.74622812210E-01

   6   6   1    8 O    -1.04242834028E-01 -4.14735691758E-02  1.11614483729E-01

   7   7   1    8 O     9.41172936887E-02  2.07531233944E-01 -4.81735264186E-01

   8   8   1    8 O    -7.93045477958E-02 -2.42921270251E-01 -4.57881497158E-01

   9   9   1    8 O     1.00938613714E-01 -2.37088656983E-01 -4.68589640437E-01

  10  10   1    8 O    -1.30102832318E-01  2.51363188024E-01  4.83766646012E-01

  11  11   1    8 O     7.49920919330E-02 -9.17766486985E-02  1.61610237039E-01

  12  12   1    8 O    -7.68411428618E-02  1.22227145153E-02 -4.49409389827E-01

  13  13   1    8 O     1.47306794023E-01  4.51248945564E-01  1.62331574005E-01

  14  14   1    8 O    -2.19730943352E-01 -3.81047575363E-01 -5.69145658142E-02

  15  15   1    8 O     2.01328017966E-02  3.82261532449E-01  2.95569282402E-01

  16  16   1    8 O    -3.65823701732E-02 -4.94198586027E-01 -3.55157008485E-01

  17  17   1    8 O     1.60880988471E-01  1.01004104233E-01  1.30242768172E-01

  18  18   1    8 O    -2.12250334422E-02 -1.58207394673E-01 -1.79065525385E-01

  19  19   1    8 O    -1.92257648924E-02  1.29944156871E-01  0.00000000000E+00

  20  20   1    8 O     1.81645140650E-01 -1.73742403405E-01 -1.33974596216E-01

  21  21   1    8 O     1.35576695049E-01 -4.67619738758E-01 -4.32221245219E-01

  22  22   1    8 O    -1.51524660558E-01  4.90876516169E-01  3.51280351083E-01

  23  23   1    8 O     5.71912837156E-03 -4.04669324787E-01 -7.27276494581E-02

  24  24   1    8 O    -1.22649398849E-01  3.37378226537E-01  1.71427792557E-03

  25  25   1    8 O     3.17617360148E-01 -3.17964512314E-01  3.91045133396E-01

  26  26   1    8 O    -3.75345637490E-01  1.57274342645E-01 -4.04504856795E-01

  27  27   1    8 O     4.00586263922E-01 -4.66573584814E-01 -2.01291273728E-01

  28  28   1    8 O    -2.64011633663E-01 -2.37598410900E-01  3.28108047720E-01

  29  29   1    8 O     2.73687480757E-01  9.97117018330E-02 -2.77764597118E-01

  30  30   1    8 O    -2.65916737703E-01 -6.31976649199E-02  2.05438972759E-01

  31  31   1    8 O     2.76410062018E-01  1.06376802520E-01  4.74346130879E-01

  32  32   1    8 O    -3.00129570409E-01 -1.90286242971E-01 -3.89949544054E-01

  33  33   1    8 O    -2.84227547429E-01  2.22710288985E-01  3.06161076578E-01

  34  34   1    8 O     3.06585887553E-01 -1.66884370190E-01 -3.15939519342E-01

  35  35   1    8 O     3.31131841345E-01 -1.55734855510E-01  2.59196244734E-01

  36  36   1    8 O    -3.75411822184E-01  6.95095604969E-02 -1.81049807286E-01

  37  37   1    8 O     4.59408081152E-01  4.71524524549E-01  2.36192008754E-01

  38  38   1    8 O    -3.71464977263E-01  4.32634901077E-01 -3.62225525339E-01

  39  39   1    8 O    -3.76876315503E-01 -4.83266564741E-01  1.52276371560E-01

  40  40   1    8 O    -4.27329625627E-01 -4.56822035551E-01 -8.71815940263E-02

  41  41   1    8 O     3.49484658785E-01  2.67230061753E-01  7.17676820056E-04

  42  42   1    8 O    -4.23229279624E-01 -1.70006465568E-01  2.62687033828E-02

  43  43   1    8 O     3.83851355680E-01  3.25626749166E-01 -4.98780909080E-01

  44  44   1    8 O    -4.49501016025E-01 -3.72775849371E-01 -4.55993205089E-01

  45  45   1    8 O    -4.77644552851E-01  2.66186770937E-01  3.03020155978E-01

  46  46   1    8 O     4.58954914054E-01 -2.37930797915E-01 -2.20259548652E-01

  47  47   1    8 O     4.78179055436E-01  9.51475382147E-02 -1.16607373052E-02

  48  48   1    8 O     4.97624889968E-01 -2.39766914047E-02  2.83664028921E-01

  49  49   1    8 O     2.46903425817E-01  3.48429055142E-01  3.30597605938E-01

  50  50   1    8 O    -2.12423542055E-01 -3.72700968945E-01 -3.03684415256E-01

  51  51   1    8 O    -2.84449531072E-01  2.71110145532E-01  7.37412175396E-02

  52  52   1    8 O     2.57630070861E-01 -3.52703339731E-01 -3.96671075315E-02

  53  53   1    1 H     9.14989788372E-02 -2.44072212870E-01  3.69683633567E-01

  54  54   1    1 H     1.05272332856E-01 -3.65772284349E-01  2.12494032400E-01

  55  55   1    1 H    -2.55939551153E-01  2.02182404151E-01 -3.22420390750E-01

  56  56   1    1 H    -1.73990810681E-01  2.68518141893E-01 -3.55789010840E-01

  57  57   1    1 H     1.29851388675E-01  3.43946747604E-01 -2.18519324058E-01

  58  58   1    1 H     8.23104697813E-02  4.79258736636E-01 -9.96711353892E-02

  59  59   1    1 H    -1.52341092182E-01 -3.20535707170E-01  2.44235134658E-01

  60  60   1    1 H    -4.85471352704E-02 -3.23107493905E-01  2.07026930669E-01

  61  61   1    1 H     1.62805381960E-01  8.24297889118E-02 -2.69178568713E-01

  62  62   1    1 H     8.28799541448E-02  8.59867526510E-02 -1.75468452466E-01

  63  63   1    1 H    -1.62219655159E-01 -5.42465412064E-02  1.46636598830E-01

  64  64   1    1 H    -1.04457409141E-01 -1.16887115486E-01  1.02053342741E-02

  65  65   1    1 H     1.53485459374E-01  1.63509183677E-01  4.92160767212E-01

  66  66   1    1 H     7.48120802579E-02  2.30359439987E-01  4.42882993312E-01

  67  67   1    1 H    -8.93236610367E-02 -1.52683195172E-01 -4.59771397713E-01

  68  68   1    1 H    -6.87154116804E-02 -2.15714633718E-01 -3.53186560431E-01

  69  69   1    1 H     1.09851163008E-01 -1.36511168654E-01 -3.89632529867E-01

  70  70   1    1 H     3.36264224886E-02 -2.53646962479E-01 -4.74109054306E-01

  71  71   1    1 H    -1.81568725515E-01  2.43028170063E-01  4.12821904459E-01

  72  72   1    1 H    -1.02133076838E-01  1.58640669913E-01  4.46450321894E-01

  73  73   1    1 H     8.66170804479E-02 -1.46950455959E-01  2.12641983284E-01

  74  74   1    1 H     9.63052234789E-03 -6.95343366631E-02  1.66329578048E-01

  75  75   1    1 H    -1.15708104597E-01  8.18212435132E-02 -3.77577680252E-01

  76  76   1    1 H    -1.40234587771E-02  4.50421367868E-02 -4.08292022148E-01

  77  77   1    1 H     1.43616957825E-01  4.13337557008E-01  5.58497112114E-02

  78  78   1    1 H     9.20427460942E-02  4.19879782734E-01  1.88166817454E-01

  79  79   1    1 H    -2.36245246169E-01 -4.81235958545E-01 -9.90209395906E-02

  80  80   1    1 H    -1.69985217564E-01 -3.63031344891E-01  1.95583192352E-02

  81  81   1    1 H     5.24839966347E-02  4.38895963870E-01  3.92082777151E-01

  82  82   1    1 H    -4.42328441710E-02  4.11314067088E-01  3.08469327909E-01

  83  83   1    1 H    -6.09799809631E-02  4.07242422904E-01 -4.17393456989E-01

  84  84   1    1 H     2.54566256296E-02 -4.90582878481E-01 -3.82218416338E-01

  85  85   1    1 H     1.35131755756E-01  3.31768513923E-02  1.58058274776E-01

  86  86   1    1 H     1.06422276465E-01  1.37146432789E-01  1.01038608868E-01

  87  87   1    1 H    -2.29586071619E-02 -5.30745475304E-02 -1.28145560899E-01

  88  88   1    1 H     4.37598100364E-02 -1.79418453519E-01 -1.75514790125E-01

  89  89   1    1 H    -5.19420151074E-02  2.11344789090E-01  0.00000000000E+00

  90  90   1    1 H    -4.83695280256E-02  1.14468714285E-01  7.08482798163E-02

  91  91   1    1 H     1.87304400078E-01 -7.74629756163E-02 -4.90065316807E-02

  92  92   1    1 H     2.22997153887E-01 -1.75542374944E-01 -2.04351103221E-01

  93  93   1    1 H     1.38513206140E-01 -3.78128129835E-01 -4.35543502974E-01

  94  94   1    1 H     1.81849060637E-01  4.69606215529E-01 -4.92818490326E-01

  95  95   1    1 H    -1.94737525135E-01  4.65493029513E-01  3.99352560820E-01

  96  96   1    1 H    -1.32848190104E-01 -4.08662978814E-01  4.20301170683E-01

  97  97   1    1 H     3.03740772786E-02 -3.07169017960E-01 -2.46520059288E-02

  98  98   1    1 H    -1.70717207997E-02 -4.30374601955E-01 -1.73820100979E-01

  99  99   1    1 H    -1.12156934632E-01  4.41888279430E-01  6.59171562505E-02

 100 100   1    1 H    -1.42914854057E-01  3.17933502046E-01 -9.74601934031E-02

 101 101   1    1 H     3.14150199466E-01 -2.64617235249E-01  4.99380858221E-01

 102 102   1    1 H     2.57184750285E-01 -3.60580331885E-01  3.49632344205E-01

 103 103   1    1 H    -3.99679285554E-01  8.37223384721E-02  4.98678806728E-01

 104 104   1    1 H    -3.81405739287E-01  2.49579423977E-01 -4.02007883736E-01

 105 105   1    1 H     3.85625538534E-01  4.57097125090E-01 -3.02793142137E-01

 106 106   1    1 H     3.44710215981E-01 -4.34113548483E-01 -1.47297758669E-01

 107 107   1    1 H    -2.70807557843E-01 -2.10222590087E-01  4.30296927041E-01

 108 108   1    1 H    -3.05308600505E-01 -3.21872092877E-01  2.69021424965E-01

 109 109   1    1 H     2.82781673492E-01  1.09201342760E-01 -3.64863763054E-01

 110 110   1    1 H     3.03876619792E-01  1.79182801151E-01 -1.87453166237E-01

 111 111   1    1 H    -2.65855630567E-01 -1.16234208095E-01  2.59592072851E-01

 112 112   1    1 H    -3.13364328473E-01 -1.11511641099E-01  1.23121129434E-01

 113 113   1    1 H     2.89107395397E-01  1.25142061742E-02  3.90330552688E-01

 114 114   1    1 H     3.20711406799E-01  1.77056139039E-01  4.79626353256E-01

 115 115   1    1 H    -3.20519975473E-01 -1.00345475138E-01 -3.09083984413E-01

 116 116   1    1 H    -2.61112943093E-01 -2.37811068994E-01 -3.47760336786E-01

 117 117   1    1 H    -2.86682494224E-01  1.18798702164E-01  2.71065450326E-01

 118 118   1    1 H    -2.78428304484E-01  2.32917056022E-01  2.19008737361E-01

 119 119   1    1 H     3.04543576015E-01 -6.75230267533E-02 -2.96557968218E-01

 120 120   1    1 H     3.66191037515E-01 -1.79613960813E-01 -2.70704796168E-01

 121 121   1    1 H     3.31371275648E-01 -2.13013487832E-01  3.08763133537E-01

 122 122   1    1 H     3.03502292946E-01 -2.18382794180E-01  1.59121220067E-01

 123 123   1    1 H    -3.87642391663E-01  1.10285229614E-01 -2.44808363043E-01

 124 124   1    1 H    -3.36827853997E-01  1.41335082130E-01 -9.41318015177E-02

 125 125   1    1 H     4.25288698155E-01 -4.51314868602E-01  3.09865618681E-01

 126 126   1    1 H     4.15841524018E-01  4.16079500281E-01  1.50113270058E-01

 127 127   1    1 H    -3.88145559145E-01  4.79658783215E-01 -2.59501989088E-01

 128 128   1    1 H    -3.11024069737E-01  4.71628365364E-01 -3.58612605186E-01

 129 129   1    1 H    -4.34605469666E-01 -4.86539270939E-01  1.92546063736E-01

 130 130   1    1 H    -3.95300491267E-01 -4.80185012437E-01  6.16459398285E-02

 131 131   1    1 H    -4.93559747379E-01 -4.72728849611E-01 -1.19376987299E-01

 132 132   1    1 H    -4.18457542069E-01 -3.51271263486E-01 -4.04160334600E-02

 133 133   1    1 H     3.98676864128E-01  1.96629498190E-01 -9.69703100342E-03

 134 134   1    1 H     3.02784950229E-01  2.50243865972E-01  5.05360095953E-02

 135 135   1    1 H    -4.57659962728E-01 -1.21849956010E-01  1.14495319506E-01

 136 136   1    1 H    -4.60915309375E-01 -1.68034436836E-01 -5.43980890872E-02

 137 137   1    1 H     4.42218612685E-01  3.11229860578E-01  4.57403203873E-01

 138 138   1    1 H     3.40495845802E-01  3.48695693419E-01  4.39863077956E-01

 139 139   1    1 H    -3.96950998167E-01 -3.10761525560E-01 -4.43769519188E-01

 140 140   1    1 H    -4.24626299958E-01 -4.48219105219E-01 -4.39015833392E-01

 141 141   1    1 H    -4.11197782353E-01  2.72194371078E-01  3.26783796891E-01

 142 142   1    1 H    -4.94882149909E-01  3.49197772640E-01  2.91349134427E-01

 143 143   1    1 H     4.93815917198E-01 -2.82296264117E-01 -3.09455661318E-01

 144 144   1    1 H     4.35263600344E-01 -3.20191943701E-01 -2.14410823764E-01

 145 145   1    1 H    -4.73519390067E-01  7.73239080673E-02 -7.76475132708E-02

 146 146   1    1 H    -4.92787817109E-01  1.38193527728E-01  8.78663949331E-02

 147 147   1    1 H     4.39634795282E-01 -7.29735276110E-02  2.77007818721E-01

 148 148   1    1 H     4.81570711057E-01  6.46383414534E-02  2.85941539079E-01

 149 149   1    1 H     2.29480297880E-01  3.98482971323E-01  2.76962219940E-01

 150 150   1    1 H     2.16992964197E-01  2.52278728569E-01  2.68470701190E-01

 151 151   1    1 H    -1.49508888750E-01 -3.98918262735E-01 -3.28317516442E-01

 152 152   1    1 H    -2.12749296853E-01 -3.58069179542E-01 -2.03330561314E-01

 153 153   1    1 H    -3.18420815688E-01  3.61269256246E-01  1.06765892271E-01

 154 154   1    1 H    -2.22860579334E-01  2.95162361312E-01  5.90404447223E-02

 155 155   1    1 H     2.25115898061E-01 -2.95069956488E-01 -7.73487483498E-02

 156 156   1    1 H     2.16606031505E-01 -4.34200123123E-01 -6.34530354550E-02

 NUMBER OF SYMMETRY OPERATORS         :    1
 *******************************************************************************
 * GEOMETRY EDITING - INPUT COORDINATES ARE GIVEN IN ANGSTROM         
 *******************************************************************************

 GCALCO - MAX INDICES DIRECT LATTICE VECTOR    10    17    17
 NO.OF VECTORS CREATED 6999 STARS 3500 RMAX   251.77366 BOHR

 GEOMETRY FOR WAVE FUNCTION - DIMENSIONALITY OF THE SYSTEM    3
 (NON PERIODIC DIRECTION: LATTICE PARAMETER FORMALLY SET TO 500)
 *******************************************************************************
 LATTICE PARAMETERS (ANGSTROMS AND DEGREES) - BOHR = 0.5291772083 ANGSTROM
 PRIMITIVE CELL - CENTRING CODE 1/0 VOLUME=  1415.809789 - DENSITY  1.098 g/cm^3
         A              B              C           ALPHA      BETA       GAMMA 
    14.56400149    10.71548804    10.50526879   119.913076  94.634616  89.127702
 *******************************************************************************
 ATOMS IN THE ASYMMETRIC UNIT  156 - ATOMS IN THE UNIT CELL:  156
     ATOM                 X/A                 Y/B                 Z/C    
 *******************************************************************************
      1 T   8 O     7.869108716202E-02 -2.711836927650E-01  2.653192995410E-01
      2 T   8 O    -1.949160422623E-01  2.476177361739E-01 -2.819426783212E-01
      3 T   8 O     1.358274660121E-01  4.151943083536E-01 -1.148907609157E-01
      4 T   8 O    -1.098463931588E-01 -3.670832511720E-01  1.676733041968E-01
      5 T   8 O     9.837234181172E-02  5.101912961921E-02 -2.746228122102E-01
      6 T   8 O    -1.042428340283E-01 -4.147356917580E-02  1.116144837289E-01
      7 T   8 O     9.411729368866E-02  2.075312339437E-01 -4.817352641857E-01
      8 T   8 O    -7.930454779580E-02 -2.429212702510E-01 -4.578814971581E-01
      9 T   8 O     1.009386137138E-01 -2.370886569828E-01 -4.685896404367E-01
     10 T   8 O    -1.301028323183E-01  2.513631880240E-01  4.837666460116E-01
     11 T   8 O     7.499209193301E-02 -9.177664869848E-02  1.616102370386E-01
     12 T   8 O    -7.684114286178E-02  1.222271451531E-02 -4.494093898267E-01
     13 T   8 O     1.473067940232E-01  4.512489455644E-01  1.623315740049E-01
     14 T   8 O    -2.197309433515E-01 -3.810475753626E-01 -5.691456581424E-02
     15 T   8 O     2.013280179656E-02  3.822615324489E-01  2.955692824018E-01
     16 T   8 O    -3.658237017322E-02 -4.941985860275E-01 -3.551570084847E-01
     17 T   8 O     1.608809884711E-01  1.010041042327E-01  1.302427681724E-01
     18 T   8 O    -2.122503344223E-02 -1.582073946733E-01 -1.790655253849E-01
     19 T   8 O    -1.922576489240E-02  1.299441568707E-01  0.000000000000E+00
     20 T   8 O     1.816451406501E-01 -1.737424034049E-01 -1.339745962156E-01
     21 T   8 O     1.355766950485E-01 -4.676197387578E-01 -4.322212452186E-01
     22 T   8 O    -1.515246605575E-01  4.908765161687E-01  3.512803510828E-01
     23 T   8 O     5.719128371563E-03 -4.046693247867E-01 -7.272764945813E-02
     24 T   8 O    -1.226493988485E-01  3.373782265369E-01  1.714277925570E-03
     25 T   8 O     3.176173601479E-01 -3.179645123144E-01  3.910451333955E-01
     26 T   8 O    -3.753456374898E-01  1.572743426450E-01 -4.045048567954E-01
     27 T   8 O     4.005862639216E-01 -4.665735848139E-01 -2.012912737283E-01
     28 T   8 O    -2.640116336625E-01 -2.375984109004E-01  3.281080477199E-01
     29 T   8 O     2.736874807565E-01  9.971170183295E-02 -2.777645971185E-01
     30 T   8 O    -2.659167377029E-01 -6.319766491994E-02  2.054389727588E-01
     31 T   8 O     2.764100620185E-01  1.063768025197E-01  4.743461308786E-01
     32 T   8 O    -3.001295704090E-01 -1.902862429715E-01 -3.899495440539E-01
     33 T   8 O    -2.842275474292E-01  2.227102889851E-01  3.061610765781E-01
     34 T   8 O     3.065858875531E-01 -1.668843701904E-01 -3.159395193422E-01
     35 T   8 O     3.311318413448E-01 -1.557348555100E-01  2.591962447342E-01
     36 T   8 O    -3.754118221845E-01  6.950956049687E-02 -1.810498072864E-01
     37 T   8 O     4.594080811515E-01  4.715245245493E-01  2.361920087543E-01
     38 T   8 O    -3.714649772628E-01  4.326349010772E-01 -3.622255253392E-01
     39 T   8 O    -3.768763155031E-01 -4.832665647415E-01  1.522763715599E-01
     40 T   8 O    -4.273296256273E-01 -4.568220355506E-01 -8.718159402628E-02
     41 T   8 O     3.494846587848E-01  2.672300617530E-01  7.176768200560E-04
     42 T   8 O    -4.232292796240E-01 -1.700064655682E-01  2.626870338278E-02
     43 T   8 O     3.838513556801E-01  3.256267491657E-01 -4.987809090799E-01
     44 T   8 O    -4.495010160248E-01 -3.727758493707E-01 -4.559932050887E-01
     45 T   8 O    -4.776445528508E-01  2.661867709368E-01  3.030201559783E-01
     46 T   8 O     4.589549140542E-01 -2.379307979145E-01 -2.202595486522E-01
     47 T   8 O     4.781790554363E-01  9.514753821475E-02 -1.166073730524E-02
     48 T   8 O     4.976248899682E-01 -2.397669140466E-02  2.836640289214E-01
     49 T   8 O     2.469034258173E-01  3.484290551421E-01  3.305976059383E-01
     50 T   8 O    -2.124235420546E-01 -3.727009689454E-01 -3.036844152562E-01
     51 T   8 O    -2.844495310720E-01  2.711101455324E-01  7.374121753961E-02
     52 T   8 O     2.576300708612E-01 -3.527033397309E-01 -3.966710753149E-02
     53 T   1 H     9.149897883717E-02 -2.440722128701E-01  3.696836335666E-01
     54 T   1 H     1.052723328562E-01 -3.657722843490E-01  2.124940324003E-01
     55 T   1 H    -2.559395511535E-01  2.021824041512E-01 -3.224203907499E-01
     56 T   1 H    -1.739908106805E-01  2.685181418933E-01 -3.557890108399E-01
     57 T   1 H     1.298513886752E-01  3.439467476041E-01 -2.185193240580E-01
     58 T   1 H     8.231046978133E-02  4.792587366364E-01 -9.967113538917E-02
     59 T   1 H    -1.523410921819E-01 -3.205357071700E-01  2.442351346576E-01
     60 T   1 H    -4.854713527042E-02 -3.231074939055E-01  2.070269306693E-01
     61 T   1 H     1.628053819597E-01  8.242978891178E-02 -2.691785687131E-01
     62 T   1 H     8.287995414477E-02  8.598675265104E-02 -1.754684524660E-01
     63 T   1 H    -1.622196551588E-01 -5.424654120643E-02  1.466365988295E-01
     64 T   1 H    -1.044574091413E-01 -1.168871154864E-01  1.020533427415E-02
     65 T   1 H     1.534854593739E-01  1.635091836767E-01  4.921607672120E-01
     66 T   1 H     7.481208025787E-02  2.303594399875E-01  4.428829933125E-01
     67 T   1 H    -8.932366103674E-02 -1.526831951717E-01 -4.597713977132E-01
     68 T   1 H    -6.871541168035E-02 -2.157146337182E-01 -3.531865604314E-01
     69 T   1 H     1.098511630084E-01 -1.365111686542E-01 -3.896325298667E-01
     70 T   1 H     3.362642248861E-02 -2.536469624794E-01 -4.741090543065E-01
     71 T   1 H    -1.815687255146E-01  2.430281700629E-01  4.128219044588E-01
     72 T   1 H    -1.021330768379E-01  1.586406699129E-01  4.464503218939E-01
     73 T   1 H     8.661708044788E-02 -1.469504559590E-01  2.126419832842E-01
     74 T   1 H     9.630522347891E-03 -6.953433666309E-02  1.663295780479E-01
     75 T   1 H    -1.157081045967E-01  8.182124351319E-02 -3.775776802519E-01
     76 T   1 H    -1.402345877714E-02  4.504213678678E-02 -4.082920221484E-01
     77 T   1 H     1.436169578245E-01  4.133375570081E-01  5.584971121142E-02
     78 T   1 H     9.204274609419E-02  4.198797827336E-01  1.881668174535E-01
     79 T   1 H    -2.362452461690E-01 -4.812359585451E-01 -9.902093959063E-02
     80 T   1 H    -1.699852175643E-01 -3.630313448912E-01  1.955831923516E-02
     81 T   1 H     5.248399663468E-02  4.388959638698E-01  3.920827771511E-01
     82 T   1 H    -4.423284417097E-02  4.113140670878E-01  3.084693279085E-01
     83 T   1 H    -6.097998096310E-02  4.072424229040E-01 -4.173934569892E-01
     84 T   1 H     2.545662562959E-02 -4.905828784814E-01 -3.822184163379E-01
     85 T   1 H     1.351317557557E-01  3.317685139232E-02  1.580582747756E-01
     86 T   1 H     1.064222764646E-01  1.371464327891E-01  1.010386088685E-01
     87 T   1 H    -2.295860716193E-02 -5.307454753036E-02 -1.281455608988E-01
     88 T   1 H     4.375981003642E-02 -1.794184535186E-01 -1.755147901252E-01
     89 T   1 H    -5.194201510743E-02  2.113447890901E-01  0.000000000000E+00
     90 T   1 H    -4.836952802557E-02  1.144687142851E-01  7.084827981630E-02
     91 T   1 H     1.873044000781E-01 -7.746297561629E-02 -4.900653168074E-02
     92 T   1 H     2.229971538873E-01 -1.755423749439E-01 -2.043511032214E-01
     93 T   1 H     1.385132061399E-01 -3.781281298351E-01 -4.355435029743E-01
     94 T   1 H     1.818490606370E-01  4.696062155291E-01 -4.928184903257E-01
     95 T   1 H    -1.947375251353E-01  4.654930295129E-01  3.993525608200E-01
     96 T   1 H    -1.328481901039E-01 -4.086629788140E-01  4.203011706835E-01
     97 T   1 H     3.037407727862E-02 -3.071690179598E-01 -2.465200592882E-02
     98 T   1 H    -1.707172079974E-02 -4.303746019546E-01 -1.738201009789E-01
     99 T   1 H    -1.121569346324E-01  4.418882794304E-01  6.591715625050E-02
    100 T   1 H    -1.429148540567E-01  3.179335020459E-01 -9.746019340312E-02
    101 T   1 H     3.141501994656E-01 -2.646172352492E-01  4.993808582208E-01
    102 T   1 H     2.571847502851E-01 -3.605803318851E-01  3.496323442046E-01
    103 T   1 H    -3.996792855539E-01  8.372233847210E-02  4.986788067283E-01
    104 T   1 H    -3.814057392869E-01  2.495794239767E-01 -4.020078837363E-01
    105 T   1 H     3.856255385344E-01  4.570971250904E-01 -3.027931421369E-01
    106 T   1 H     3.447102159814E-01 -4.341135484834E-01 -1.472977586689E-01
    107 T   1 H    -2.708075578433E-01 -2.102225900873E-01  4.302969270408E-01
    108 T   1 H    -3.053086005053E-01 -3.218720928766E-01  2.690214249648E-01
    109 T   1 H     2.827816734925E-01  1.092013427603E-01 -3.648637630542E-01
    110 T   1 H     3.038766197916E-01  1.791828011508E-01 -1.874531662366E-01
    111 T   1 H    -2.658556305674E-01 -1.162342080951E-01  2.595920728505E-01
    112 T   1 H    -3.133643284733E-01 -1.115116410987E-01  1.231211294344E-01
    113 T   1 H     2.891073953966E-01  1.251420617417E-02  3.903305526883E-01
    114 T   1 H     3.207114067994E-01  1.770561390389E-01  4.796263532565E-01
    115 T   1 H    -3.205199754726E-01 -1.003454751380E-01 -3.090839844126E-01
    116 T   1 H    -2.611129430928E-01 -2.378110689942E-01 -3.477603367857E-01
    117 T   1 H    -2.866824942243E-01  1.187987021638E-01  2.710654503261E-01
    118 T   1 H    -2.784283044840E-01  2.329170560222E-01  2.190087373613E-01
    119 T   1 H     3.045435760147E-01 -6.752302675335E-02 -2.965579682178E-01
    120 T   1 H     3.661910375147E-01 -1.796139608132E-01 -2.707047961683E-01
    121 T   1 H     3.313712756475E-01 -2.130134878325E-01  3.087631335367E-01
    122 T   1 H     3.035022929457E-01 -2.183827941795E-01  1.591212200673E-01
    123 T   1 H    -3.876423916627E-01  1.102852296141E-01 -2.448083630433E-01
    124 T   1 H    -3.368278539968E-01  1.413350821303E-01 -9.413180151774E-02
    125 T   1 H     4.252886981552E-01 -4.513148686021E-01  3.098656186806E-01
    126 T   1 H     4.158415240177E-01  4.160795002810E-01  1.501132700581E-01
    127 T   1 H    -3.881455591453E-01  4.796587832153E-01 -2.595019890878E-01
    128 T   1 H    -3.110240697367E-01  4.716283653644E-01 -3.586126051860E-01
    129 T   1 H    -4.346054696663E-01 -4.865392709389E-01  1.925460637363E-01
    130 T   1 H    -3.953004912665E-01 -4.801850124368E-01  6.164593982847E-02
    131 T   1 H    -4.935597473792E-01 -4.727288496114E-01 -1.193769872991E-01
    132 T   1 H    -4.184575420692E-01 -3.512712634862E-01 -4.041603345997E-02
    133 T   1 H     3.986768641276E-01  1.966294981895E-01 -9.697031003418E-03
    134 T   1 H     3.027849502287E-01  2.502438659716E-01  5.053600959527E-02
    135 T   1 H    -4.576599627284E-01 -1.218499560104E-01  1.144953195063E-01
    136 T   1 H    -4.609153093755E-01 -1.680344368362E-01 -5.439808908717E-02
    137 T   1 H     4.422186126852E-01  3.112298605779E-01  4.574032038729E-01
    138 T   1 H     3.404958458019E-01  3.486956934191E-01  4.398630779557E-01
    139 T   1 H    -3.969509981669E-01 -3.107615255603E-01 -4.437695191880E-01
    140 T   1 H    -4.246262999575E-01 -4.482191052193E-01 -4.390158333916E-01
    141 T   1 H    -4.111977823526E-01  2.721943710783E-01  3.267837968913E-01
    142 T   1 H    -4.948821499091E-01  3.491977726397E-01  2.913491344275E-01
    143 T   1 H     4.938159171976E-01 -2.822962641174E-01 -3.094556613182E-01
    144 T   1 H     4.352636003442E-01 -3.201919437009E-01 -2.144108237637E-01
    145 T   1 H    -4.735193900665E-01  7.732390806734E-02 -7.764751327082E-02
    146 T   1 H    -4.927878171087E-01  1.381935277283E-01  8.786639493314E-02
    147 T   1 H     4.396347952821E-01 -7.297352761097E-02  2.770078187213E-01
    148 T   1 H     4.815707110570E-01  6.463834145338E-02  2.859415390793E-01
    149 T   1 H     2.294802978797E-01  3.984829713228E-01  2.769622199396E-01
    150 T   1 H     2.169929641974E-01  2.522787285688E-01  2.684707011897E-01
    151 T   1 H    -1.495088887499E-01 -3.989182627345E-01 -3.283175164422E-01
    152 T   1 H    -2.127492968533E-01 -3.580691795423E-01 -2.033305613137E-01
    153 T   1 H    -3.184208156875E-01  3.612692562460E-01  1.067658922706E-01
    154 T   1 H    -2.228605793339E-01  2.951623613120E-01  5.904044472232E-02
    155 T   1 H     2.251158980607E-01 -2.950699564882E-01 -7.734874834985E-02
    156 T   1 H     2.166060315049E-01 -4.342001231226E-01 -6.345303545505E-02

 T = ATOM BELONGING TO THE ASYMMETRIC UNIT

 ****    1 SYMMOPS - TRANSLATORS IN FRACTIONAL UNITS
 **** MATRICES AND TRANSLATORS IN THE CRYSTALLOGRAPHIC REFERENCE FRAME
   V INV                    ROTATION MATRICES                   TRANSLATORS
   1   1  1.00  0.00  0.00  0.00  1.00  0.00  0.00  0.00  1.00  0.00  0.00  0.00

 DIRECT LATTICE VECTORS CARTESIAN COMPONENTS (ANGSTROM)
          X                    Y                    Z
   0.145623136673E+02   0.221720669732E+00   0.000000000000E+00
   0.000000000000E+00   0.107154880400E+02   0.000000000000E+00
  -0.769171415622E+00  -0.523882594718E+01   0.907324365256E+01


 CARTESIAN COORDINATES - PRIMITIVE CELL
 *******************************************************************************
 *      ATOM          X(ANGSTROM)         Y(ANGSTROM)         Z(ANGSTROM)
 *******************************************************************************
    1     8 O     9.418482728556E-01 -4.278379806642E+00  2.407306650462E+00
    2     8 O    -2.621566297207E+00  4.087176593838E+00 -2.558134616463E+00
    3     8 O     2.066332853921E+00  5.081018101548E+00 -1.042431867216E+00
    4     8 O    -1.728587145153E+00 -4.836242660152E+00  1.521340743007E+00
    5     8 O     1.643760914881E+00  2.007207169050E+00 -2.491719687734E+00
    6     8 O    -1.603867517144E+00 -1.052251178895E+00  1.012705406027E+00
    7     8 O     9.719311316998E-01 -4.704325408519E-01  4.702342224572E+00
    8     8 O    -8.026683408908E-01 -2.218419554410E-01 -4.154470387714E+00
    9     8 O     1.830325511125E+00 -6.328092438500E-02 -4.251627980747E+00
   10     8 O    -2.266697729169E+00  1.302634903461E-01  4.389332650244E+00
   11     8 O     9.677523904947E-01 -1.813452187759E+00  1.466329057399E+00
   12     8 O    -7.733119683414E-01  2.468312653877E+00 -4.077600893645E+00
   13     8 O     2.020266933315E+00  4.017586778342E+00  1.472873923450E+00
   14     8 O    -3.156013862343E+00 -3.833664124230E+00 -5.163997230122E-01
   15     8 O     6.583673140393E-02  2.552146711570E+00  2.681772115443E+00
   16     8 O    -2.595473301719E-01 -3.443084354205E+00 -3.222426072896E+00
   17     8 O     2.242620402854E+00  4.356597180734E-01  1.181724369612E+00
   18     8 O    -1.713535109356E-01 -7.618823534594E-01 -1.624705141591E+00
   19     8 O    -2.799716188572E-01  1.388152309348E+00  0.000000000000E+00
   20     8 O     2.748222944119E+00 -1.119590572570E+00 -1.215584154717E+00
   21     8 O     2.306762586321E+00 -2.716381687927E+00 -3.921648669681E+00
   22     8 O    -2.476744440295E+00  3.386088670916E+00  3.187252215731E+00
   23     8 O     1.392237703390E-01 -3.953953763875E+00 -6.598756838115E-01
   24     8 O    -1.787377590719E+00  3.578997640880E+00  1.555406130690E-02
   25     8 O     5.093634301455E+00 -1.465140392098E-01 -5.525195878114E+00
   26     8 O    -5.154767333458E+00  3.721179991026E+00 -3.670171124348E+00
   27     8 O     5.988290320011E+00 -3.856215465382E+00 -1.826364771671E+00
   28     8 O    -4.096991552756E+00 -4.323420720433E+00  2.977004261328E+00
   29     8 O     4.199171529969E+00  2.584302098562E+00 -2.520225867711E+00
   30     8 O    -4.030380729320E+00 -1.812412080833E+00  1.863997855572E+00
   31     8 O     3.660316538933E+00 -1.283851639186E+00  4.303858021110E+00
   32     8 O    -4.070642902312E+00 -6.267710061479E-02 -3.538107225405E+00
   33     8 O    -4.374501047236E+00  7.195057238386E-01  2.777874044723E+00
   34     8 O     4.707611507865E+00 -6.511889285000E-02 -2.866596238464E+00
   35     8 O     4.622679396413E+00 -2.953240220321E+00  2.351750682302E+00
   36     8 O    -5.327606372501E+00  1.610080731674E+00 -1.642709014758E+00
   37     8 O     6.508372437296E+00  3.917106846830E+00  2.143027644215E+00
   38     8 O    -5.130775995224E+00 -4.264318914484E+00 -3.286560448579E+00
   39     8 O    -5.605317752418E+00  4.655740269831E+00  1.381640621691E+00
   40     8 O    -6.155850457629E+00 -4.533089672240E+00 -7.910198446189E-01
   41     8 O     5.088753206644E+00  2.937228719303E+00  6.511656652162E-03
   42     8 O    -6.183402658845E+00 -2.053158092728E+00  2.383423462288E-01
   43     8 O     5.204240445339E+00  9.485577371142E-01  4.547682935232E+00
   44     8 O    -6.195037850059E+00 -1.705269787295E+00 -4.137337453681E+00
   45     8 O    -7.188684242435E+00  1.158947634570E+00  2.749375706827E+00
   46     8 O     6.852862766455E+00 -1.293883389886E+00 -1.998468551724E+00
   47     8 O     6.972362500225E+00  1.186663061357E+00 -1.058007107389E-01
   48     8 O     7.028383473695E+00 -1.632654701101E+00  2.573752849870E+00
   49     8 O     3.341198903726E+00  2.056387650030E+00  2.999592629631E+00
   50     8 O    -2.859792878137E+00 -2.449821670844E+00 -2.755402693104E+00
   51     8 O    -4.198962930676E+00  2.455691777618E+00  6.690720339732E-01
   52     8 O     3.782200707268E+00 -3.514457434514E+00 -3.599093316255E-01
   53     1 H     1.048086746303E+00 -4.531773874815E+00  3.354229681713E+00
   54     1 H     1.369564395830E+00 -5.009306736720E+00  1.928010130683E+00
   55     1 H    -3.479075475391E+00  3.798840353848E+00 -2.925398763827E+00
   56     1 H    -2.260046023230E+00  4.702642280619E+00 -3.228160384253E+00
   57     1 H     2.059015469852E+00  4.859132702047E+00 -1.982679069971E+00
   58     1 H     1.275295067364E+00 -5.039587116760E+00 -9.043404965131E-01
   59     1 H    -2.406297453044E+00 -4.747979066217E+00  2.216004885264E+00
   60     1 H    -8.661978087924E-01 -4.557596446080E+00  1.878405784604E+00
   61     1 H     2.577867499577E+00  2.329552405747E+00 -2.442322739981E+00
   62     1 H     1.341889206969E+00  1.859014900261E+00 -1.592068022561E+00
   63     1 H    -2.475082181730E+00 -1.385449232849E+00  1.330469589563E+00
   64     1 H    -1.528991208201E+00 -1.329126824733E+00  9.259548442517E-02
   65     1 H     1.856547408745E+00 -7.922329964897E-01  4.465494557145E+00
   66     1 H     7.487840398983E-01  1.648142916959E-01  4.018385307899E+00
   67     1 H    -9.471161530884E-01  7.527824743916E-01 -4.171617915929E+00
   68     1 H    -7.289943720022E-01 -4.764402877759E-01 -3.204547717603E+00
   69     1 H     1.899381297018E+00  6.027894857235E-01 -3.535230878443E+00
   70     1 H     8.543496442492E-01 -2.267205044218E-01 -4.301706967607E+00
   71     1 H    -2.961591541771E+00  4.012058056257E-01  3.745633724268E+00
   72     1 H    -1.830690726818E+00 -6.616083435535E-01  4.050752549307E+00
   73     1 H     1.097786959126E+00 -2.669435395703E+00  1.929352525101E+00
   74     1 H     1.230673020311E-02 -1.614330776279E+00  1.509148788256E+00
   75     1 H    -1.394555754161E+00  2.829163426218E+00 -3.425854290693E+00
   76     1 H     1.098325472498E-01  2.618510027020E+00 -3.704532998348E+00
   77     1 H     2.048437186352E+00  4.168369580440E+00  5.067380377462E-01
   78     1 H     1.195622802071E+00  3.533851363754E+00  1.707283382082E+00
   79     1 H    -3.364113300844E+00 -4.690305144768E+00 -8.984411116111E-01
   80     1 H    -2.490421757072E+00 -4.030209900902E+00  1.774573958551E-01
   81     1 H     4.627095567661E-01  2.660567812154E+00  3.557462569064E+00
   82     1 H    -8.813983408387E-01  2.781606511773E+00  2.798817371455E+00
   83     1 H    -1.336133909650E+00  1.298106515267E+00  5.286131118312E+00
   84     1 H     6.646988477012E-01 -3.248814949912E+00 -3.467960819929E+00
   85     1 H     1.846257106770E+00 -4.425721333733E-01  1.434101238342E+00
   86     1 H     1.472038561252E+00  9.638632928852E-01  9.167479165795E-01
   87     1 H    -2.357645363745E-01  9.752221240647E-02 -1.162695897029E+00
   88     1 H     7.722450393558E-01 -9.933624018235E-01 -1.592488455434E+00
   89     1 H    -7.563959165069E-01  2.253145941434E+00  0.000000000000E+00
   90     1 H    -7.588667107292E-01  8.447018081130E-01  6.428237051379E-01
   91     1 H     2.765279848554E+00 -5.317876419797E-01 -4.446482025062E-01
   92     1 H     3.404535529175E+00 -7.610192790252E-01 -1.854127350197E+00
   93     1 H     2.352080367623E+00 -1.739379607496E+00 -3.951792323775E+00
   94     1 H     2.258033541329E+00  2.415343828715E+00  4.601781413347E+00
   95     1 H    -3.142999498356E+00  2.852669098257E+00  3.623423087593E+00
   96     1 H    -1.488689245248E+00 -1.371537182982E+00 -5.259748723492E+00
   97     1 H     4.612784589848E-01 -3.155583809140E+00 -2.236736563165E-01
   98     1 H    -1.149062999931E-01 -3.704845798184E+00 -1.577112127894E+00
   99     1 H    -1.683966054469E+00  4.364852554061E+00  5.980824195446E-01
  100     1 H    -2.006207337566E+00  3.885702451549E+00 -8.842800811720E-01
  101     1 H     4.959815677238E+00 -1.431926772609E-01 -4.542239450497E+00
  102     1 H     3.476277798963E+00  5.077053984512E+00  3.172299447784E+00
  103     1 H    -5.434653190655E+00  3.434843032890E+00 -4.548609334746E+00
  104     1 H    -5.244937036986E+00  4.695849128986E+00 -3.647515479389E+00
  105     1 H     5.848499880044E+00 -4.145687540651E+00 -2.747315954932E+00
  106     1 H     5.133075515003E+00 -3.803641836749E+00 -1.336468453879E+00
  107     1 H    -3.505385281682E+00  6.718939578947E-01 -5.169054790570E+00
  108     1 H    -4.652923196161E+00 -4.926066210461E+00  2.440896936464E+00
  109     1 H     4.398598205904E+00  3.144301973409E+00 -3.310497822180E+00
  110     1 H     4.569330270807E+00  2.969441401523E+00 -1.700808250708E+00
  111     1 H    -4.071143884704E+00 -2.664409642075E+00  2.355342127245E+00
  112     1 H    -4.658010896797E+00 -1.909391172820E+00  1.117108006137E+00
  113     1 H     3.909841471534E+00 -1.846676915479E+00  3.541564209579E+00
  114     1 H     4.301385221395E+00 -5.443276962050E-01  4.351766765284E+00
  115     1 H    -4.429773853636E+00  4.729205550646E-01 -2.804394299679E+00
  116     1 H    -3.534921269371E+00 -7.842999264524E-01 -3.155314268352E+00
  117     1 H    -4.383256199977E+00 -2.106420769686E-01  2.459442876599E+00
  118     1 H    -4.223015564305E+00  1.286737962028E+00  1.987119636118E+00
  119     1 H     4.662962991521E+00  8.975969987789E-01 -2.690742702748E+00
  120     1 H     5.540807141734E+00 -4.252838166306E-01 -2.456170573551E+00
  121     1 H     4.588040679804E+00 -3.826627935566E+00  2.801483141506E+00
  122     1 H     4.297304094531E+00 -3.106393863950E+00  1.443745599963E+00
  123     1 H    -5.456670502983E+00  2.378320132620E+00 -2.221205926076E+00
  124     1 H    -4.832589370762E+00  1.932932809073E+00 -8.540807706247E-01
  125     1 H     5.954847645128E+00  4.350392214922E+00  2.811486257840E+00
  126     1 H     5.940151872207E+00  3.764278275962E+00  1.362014274719E+00
  127     1 H    -5.452695868547E+00 -4.302284224725E+00 -2.354524775317E+00
  128     1 H    -4.253395496400E+00 -3.852011375624E+00 -3.253779543731E+00
  129     1 H    -6.476962099229E+00  4.396905970731E+00  1.747017350621E+00
  130     1 H    -5.803906041473E+00  5.159472643465E+00  5.593286322547E-01
  131     1 H    -7.095550488584E+00 -4.549557473357E+00 -1.083136492273E+00
  132     1 H    -6.062623126396E+00 -3.645091144392E+00 -3.667045190523E-01
  133     1 H     5.813116226393E+00  2.246176995113E+00 -8.798352500043E-02
  134     1 H     4.370378564933E+00  2.483869476517E+00  4.585255282859E-01
  135     1 H    -6.752654457211E+00 -2.006975470410E+00  1.038843930958E+00
  136     1 H    -6.670151854004E+00 -1.617783328724E+00 -4.935671165215E-01
  137     1 H     6.087904677615E+00  1.036773082914E+00  4.150130716200E+00
  138     1 H     4.620077202635E+00  1.507573393404E+00  3.990984880056E+00
  139     1 H    -5.439190116577E+00 -1.093142379909E+00 -4.026428973171E+00
  140     1 H    -5.845862941323E+00 -2.597107349695E+00 -3.983297623693E+00
  141     1 H    -6.239343841581E+00  1.113561045877E+00  2.964989010903E+00
  142     1 H     7.131587145817E+00  2.327492219204E+00  2.643481684623E+00
  143     1 H    -7.133186938083E+00 -1.515989367718E+00 -2.807766614804E+00
  144     1 H     6.503363753017E+00 -2.211245019363E+00 -1.945401645754E+00
  145     1 H    -6.835813638003E+00  1.130356183062E+00 -7.045148069214E-01
  146     1 H    -7.243715083546E+00  9.112330990718E-01  7.972332101003E-01
  147     1 H     6.189033291900E+00 -2.135666589393E+00  2.513359432922E+00
  148     1 H     6.792845689006E+00 -6.985923989569E-01  2.594417254454E+00
  149     1 H     3.128732655409E+00  2.869863174481E+00  2.512945704066E+00
  150     1 H     2.953419618956E+00  1.344930248624E+00  2.435900085467E+00
  151     1 H    -1.924662885133E+00 -2.587754760163E+00 -2.978904822083E+00
  152     1 H    -2.941725937594E+00 -2.818843506997E+00 -1.844867724811E+00
  153     1 H    -4.719065068742E+00  3.241247991312E+00  9.687129543540E-01
  154     1 H    -3.290777882786E+00  2.804093341846E+00  5.356883403210E-01
  155     1 H     3.337702765325E+00 -2.706689112190E+00 -7.018040399986E-01
  156     1 H     3.203091234114E+00 -4.272220783344E+00 -5.757248511781E-01

 *******************************************************************************
 STARTING BASIS SET HANDLING 
 *******************************************************************************

 Loading internal basis set: DEF2-MSVP           

 Please cite in your publication:
 Fully Optimized Contracted Gaussian Basis Sets for Atoms Li to Kr. A. Schfer, 
 H. Horn and R. Ahlrichs; J. Chem. Phys. 97, 2571 (1992).                       
                                                                                
                    
 S. Grimme, J. G. Brandenburg, C. Bannwarth, and A. Hansen, J. Chem. Phys., 143,
  054107 (2015).                                                                
                                                                                
                    

 *******************************************************************************
 LOCAL ATOMIC FUNCTIONS BASIS SET
 *******************************************************************************
   ATOM   X(AU)   Y(AU)   Z(AU)  N. TYPE  EXPONENT  S COEF   P COEF   D/F/G COEF
 *******************************************************************************
   1 O    1.780  -8.085   4.549
                                  1 S  
                                         6.773E+03 1.727E-03 0.000E+00 0.000E+00
                                         1.017E+03 1.325E-02 0.000E+00 0.000E+00
                                         2.313E+02 6.603E-02 0.000E+00 0.000E+00
                                         6.501E+01 2.353E-01 0.000E+00 0.000E+00
                                         2.050E+01 5.498E-01 0.000E+00 0.000E+00
                                  2 S  
                                         6.716E+00 1.000E+00 0.000E+00 0.000E+00
                                  3 S  
                                         1.147E+00 1.000E+00 0.000E+00 0.000E+00
                                  4 S  
                                         3.342E-01 1.000E+00 0.000E+00 0.000E+00
                           5-     7 P  
                                         1.769E+01 0.000E+00 4.359E-02 0.000E+00
                                         3.854E+00 0.000E+00 2.318E-01 0.000E+00
                                         1.047E+00 0.000E+00 5.146E-01 0.000E+00
                           8-    10 P  
                                         2.759E-01 0.000E+00 1.000E+00 0.000E+00
                          11-    15 D  
                                         8.000E-01 0.000E+00 0.000E+00 1.000E+00
   2 O   -4.954   7.724  -4.834
   3 O    3.905   9.602  -1.970
   4 O   -3.267  -9.139   2.875
   5 O    3.106   3.793  -4.709
   6 O   -3.031  -1.988   1.914
   7 O    1.837  -0.889   8.886
   8 O   -1.517  -0.419  -7.851
   9 O    3.459  -0.120  -8.034
  10 O   -4.283   0.246   8.295
  11 O    1.829  -3.427   2.771
  12 O   -1.461   4.664  -7.706
  13 O    3.818   7.592   2.783
  14 O   -5.964  -7.245  -0.976
  15 O    0.124   4.823   5.068
  16 O   -0.490  -6.506  -6.090
  17 O    4.238   0.823   2.233
  18 O   -0.324  -1.440  -3.070
  19 O   -0.529   2.623   0.000
  20 O    5.193  -2.116  -2.297
  21 O    4.359  -5.133  -7.411
  22 O   -4.680   6.399   6.023
  23 O    0.263  -7.472  -1.247
  24 O   -3.378   6.763   0.029
  25 O    9.626  -0.277 -10.441
  26 O   -9.741   7.032  -6.936
  27 O   11.316  -7.287  -3.451
  28 O   -7.742  -8.170   5.626
  29 O    7.935   4.884  -4.763
  30 O   -7.616  -3.425   3.522
  31 O    6.917  -2.426   8.133
  32 O   -7.692  -0.118  -6.686
  33 O   -8.267   1.360   5.249
  34 O    8.896  -0.123  -5.417
  35 O    8.736  -5.581   4.444
  36 O  -10.068   3.043  -3.104
  37 O   12.299   7.402   4.050
  38 O   -9.696  -8.058  -6.211
  39 O  -10.593   8.798   2.611
  40 O  -11.633  -8.566  -1.495
  41 O    9.616   5.551   0.012
  42 O  -11.685  -3.880   0.450
  43 O    9.835   1.793   8.594
  44 O  -11.707  -3.222  -7.818
  45 O  -13.585   2.190   5.196
  46 O   12.950  -2.445  -3.777
  47 O   13.176   2.242  -0.200
  48 O   13.282  -3.085   4.864
  49 O    6.314   3.886   5.668
  50 O   -5.404  -4.629  -5.207
  51 O   -7.935   4.641   1.264
  52 O    7.147  -6.641  -0.680
  53 H    1.981  -8.564   6.339
                                781 S  
                                         1.874E+01 1.968E-02 0.000E+00 0.000E+00
                                         2.826E+00 1.380E-01 0.000E+00 0.000E+00
                                         6.401E-01 4.783E-01 0.000E+00 0.000E+00
                                782 S  
                                         1.756E-01 1.000E+00 0.000E+00 0.000E+00
  54 H    2.588  -9.466   3.643
  55 H   -6.574   7.179  -5.528
  56 H   -4.271   8.887  -6.100
  57 H    3.891   9.182  -3.747
  58 H    2.410  -9.523  -1.709
  59 H   -4.547  -8.972   4.188
  60 H   -1.637  -8.613   3.550
  61 H    4.871   4.402  -4.615
  62 H    2.536   3.513  -3.009
  63 H   -4.677  -2.618   2.514
  64 H   -2.889  -2.512   0.175
  65 H    3.508  -1.497   8.439
  66 H    1.415   0.311   7.594
  67 H   -1.790   1.423  -7.883
  68 H   -1.378  -0.900  -6.056
  69 H    3.589   1.139  -6.681
  70 H    1.614  -0.428  -8.129
  71 H   -5.597   0.758   7.078
  72 H   -3.460  -1.250   7.655
  73 H    2.075  -5.045   3.646
  74 H    0.023  -3.051   2.852
  75 H   -2.635   5.346  -6.474
  76 H    0.208   4.948  -7.001
  77 H    3.871   7.877   0.958
  78 H    2.259   6.678   3.226
  79 H   -6.357  -8.863  -1.698
  80 H   -4.706  -7.616   0.335
  81 H    0.874   5.028   6.723
  82 H   -1.666   5.256   5.289
  83 H   -2.525   2.453   9.989
  84 H    1.256  -6.139  -6.553
  85 H    3.489  -0.836   2.710
  86 H    2.782   1.821   1.732
  87 H   -0.446   0.184  -2.197
  88 H    1.459  -1.877  -3.009
  89 H   -1.429   4.258   0.000
  90 H   -1.434   1.596   1.215
  91 H    5.226  -1.005  -0.840
  92 H    6.434  -1.438  -3.504
  93 H    4.445  -3.287  -7.468
  94 H    4.267   4.564   8.696
  95 H   -5.939   5.391   6.847
  96 H   -2.813  -2.592  -9.939
  97 H    0.872  -5.963  -0.423
  98 H   -0.217  -7.001  -2.980
  99 H   -3.182   8.248   1.130
 100 H   -3.791   7.343  -1.671
 101 H    9.373  -0.271  -8.584
 102 H    6.569   9.594   5.995
 103 H  -10.270   6.491  -8.596
 104 H   -9.911   8.874  -6.893
 105 H   11.052  -7.834  -5.192
 106 H    9.700  -7.188  -2.526
 107 H   -6.624   1.270  -9.768
 108 H   -8.793  -9.309   4.613
 109 H    8.312   5.942  -6.256
 110 H    8.635   5.611  -3.214
 111 H   -7.693  -5.035   4.451
 112 H   -8.802  -3.608   2.111
 113 H    7.389  -3.490   6.693
 114 H    8.128  -1.029   8.224
 115 H   -8.371   0.894  -5.300
 116 H   -6.680  -1.482  -5.963
 117 H   -8.283  -0.398   4.648
 118 H   -7.980   2.432   3.755
 119 H    8.812   1.696  -5.085
 120 H   10.471  -0.804  -4.641
 121 H    8.670  -7.231   5.294
 122 H    8.121  -5.870   2.728
 123 H  -10.312   4.494  -4.197
 124 H   -9.132   3.653  -1.614
 125 H   11.253   8.221   5.313
 126 H   11.225   7.113   2.574
 127 H  -10.304  -8.130  -4.449
 128 H   -8.038  -7.279  -6.149
 129 H  -12.240   8.309   3.301
 130 H  -10.968   9.750   1.057
 131 H  -13.409  -8.597  -2.047
 132 H  -11.457  -6.888  -0.693
 133 H   10.985   4.245  -0.166
 134 H    8.259   4.694   0.866
 135 H  -12.761  -3.793   1.963
 136 H  -12.605  -3.057  -0.933
 137 H   11.504   1.959   7.843
 138 H    8.731   2.849   7.542
 139 H  -10.279  -2.066  -7.609
 140 H  -11.047  -4.908  -7.527
 141 H  -11.791   2.104   5.603
 142 H   13.477   4.398   4.995
 143 H  -13.480  -2.865  -5.306
 144 H   12.290  -4.179  -3.676
 145 H  -12.918   2.136  -1.331
 146 H  -13.689   1.722   1.507
 147 H   11.696  -4.036   4.750
 148 H   12.837  -1.320   4.903
 149 H    5.912   5.423   4.749
 150 H    5.581   2.542   4.603
 151 H   -3.637  -4.890  -5.629
 152 H   -5.559  -5.327  -3.486
 153 H   -8.918   6.125   1.831
 154 H   -6.219   5.299   1.012
 155 H    6.307  -5.115  -1.326
 156 H    6.053  -8.073  -1.088

 *******************************************************************************
 FINISHED BASIS SET HANDLING 
 *******************************************************************************

 INFORMATION **** SET_MPP **** PCRYSTAL CALCULATION
 INFORMATION **** READM2 **** NEW DEFAULT: FOCK/KS MATRIX MIXING SET TO 30 %
 INFORMATION **** READM2 **** NEW DEFAULT: FULL DIRECT SCF MODE
 INFORMATION **** READM2 **** NEW DEFAULT: COULOMB BIPOLAR BUFFER SET TO 32 Mb
 INFORMATION **** READM2 **** NEW DEFAULT: EXCHANGE BIPOLAR BUFFER SET TO 32 Mb

 *******************************************************************************
 NEW DEFAULT: DFT INTEGRATION GRID INCREASED TO XLGRID
 NEW DEFAULT: DIIS ACCELERATOR ACTIVE
 USE KEYWORD NODIIS TO TURN IT OFF
 *******************************************************************************

 INFORMATION **** RDDFTP **** HSE-3c calculation
 INFORMATION **** RDDFTP **** HSE screened hybrid functional combined with D3 and gCP

PLEASE CITE:
(1) HSE-3c Reference
 J. G. Brandenburg, E. Caldeweyer, and S. Grimme, 
 Phys. Chem. Chem. Phys. 18, 15519 (2016)
(2) DFT-D3 Reference
 S. Grimme, J. Antony, S. Ehrlich,
 and H. Krieg, J. Chem. Phys. 132, 154104 (2010)
(3) gCP Reference
 H. Kruse and S. Grimme J. Chem. Phys, 136, 154101 (2012)
 J. G. Brandenburg, M. Alessio, B. Civalleri, M. F. Peintinger
 T. Bredow, and S. Grimme, J. Phys. Chem. A, 117, 9282 (2013) 

 WARNING **** RDDFTP **** HSE3c-HJS ACTIVE
 RANGE SEPARATION - OMEGA:   0.110000000000000     
 WARNING **** RDDFTP **** HSE-3c has to be combined with def2-mSVP basis set
 WARNING **** RDDFTP **** Note: Harmonic frequencies are scaled by 0.95
 WARNING **** RDDFTP **** as recommended in original publication
 INFORMATION **** BIPOSIZE **** COULOMB BIPOLAR BUFFER SET TO    60000000
 INFORMATION **** EXCHSIZE **** EXCHANGE BIPOLAR BUFFER SIZE SET TO    40000000
 *******************************************************************************
 N. OF ATOMS PER CELL       156  COULOMB OVERLAP TOL         (T1) 10**   -6
 NUMBER OF SHELLS           572  COULOMB PENETRATION TOL     (T2) 10**   -6
 NUMBER OF AO               988  EXCHANGE OVERLAP TOL        (T3) 10**   -6
 N. OF ELECTRONS PER CELL   520  EXCHANGE PSEUDO OVP (F(G))  (T4) 10**   -6
 CORE ELECTRONS PER CELL    104  EXCHANGE PSEUDO OVP (P(G))  (T5) 10**  -12
 N. OF SYMMETRY OPERATORS     1  POLE ORDER IN MONO ZONE                  4
 *******************************************************************************
 TYPE OF CALCULATION :  RESTRICTED CLOSED SHELL
 KOHN-SHAM HAMILTONIAN

 (EXCHANGE)[CORRELATION] FUNCTIONAL:(HSE-3c)[PBEh-3c]

 RANGE-SEPARATED HYBRID FUNCTIONAL 
 OMEGA (SHORT-RANGE)[LONG-RANGE]:(    0.1100)[    0.0000]

 HYBRID EXCHANGE - PERCENTAGE OF FOCK EXCHANGE    42.0000

 CAPPA:IS1  1;IS2  1;IS3  1; K PTS MONK NET   1; SYMMOPS:K SPACE   2;G SPACE   1

 *******************************************************************************
 MAX NUMBER OF SCF CYCLES      50  CONVERGENCE ON DELTAP        10**-16
 WEIGHT OF F(I) IN F(I+1)      30% CONVERGENCE ON ENERGY        10**- 6
 S(K) EIGENV. THRESHOLD  10*10.**-4
 SHRINK. FACT.(MONKH.)    1  1  1  NUMBER OF K POINTS IN THE IBZ      1
 SHRINKING FACTOR(GILAT NET)    1  NUMBER OF K POINTS(GILAT NET)      1
 *******************************************************************************
 *** K POINTS COORDINATES (OBLIQUE COORDINATES IN UNITS OF IS =  1)
   1-R(  0  0  0)

 DIRECT LATTICE VECTORS COMPON. (A.U.)     RECIP. LATTICE VECTORS COMPON. (A.U.) 
        X            Y            Z              X            Y            Z
   27.5187847    0.4189913    0.0000000      0.2283235    0.0000000    0.0193558
    0.0000000   20.2493378    0.0000000     -0.0047244    0.3102909    0.1787592
   -1.4535233   -9.8999463   17.1459456      0.0000000    0.0000000    0.3664531

 DISK SPACE FOR EIGENVECTORS (FTN 10)      976144 REALS

 SYMMETRY ADAPTION OF THE BLOCH FUNCTIONS DISABLED
 TTTTTTTTTTTTTTTTTTTTTTTTTTTTTT gordsh1     TELAPSE        0.19 TCPU        0.08

 MATRIX SIZE: P(G)  560248, F(G)   98358, P(G) IRR  281450, F(G) IRR   99190
 MAX G-VECTOR INDEX FOR 1- AND 2-ELECTRON INTEGRALS  41

 TTTTTTTTTTTTTTTTTTTTTTTTTTTTTT INPUT       TELAPSE        1.63 TCPU        1.53

 NEIGHBORS OF THE NON-EQUIVALENT ATOMS

 N = NUMBER OF NEIGHBORS AT DISTANCE R
    ATOM  N     R/ANG      R/AU   NEIGHBORS (ATOM LABELS AND CELL INDICES)
   1 O    1     0.9731     1.8389   54 H    0 0 0
   1 O    1     0.9860     1.8632   53 H    0 0 0
   1 O    1     1.6857     3.1854   73 H    0 0 0
   1 O    1     1.9044     3.5988   60 H    0 0 0
   1 O    1     2.6251     4.9607    9 O    0 0 1
   1 O    1     2.6386     4.9861   11 O    0 0 0

   2 O    1     0.9764     1.8451   55 H    0 0 0
   2 O    1     0.9790     1.8500   56 H    0 0 0
   2 O    1     1.7947     3.3915  100 H    0 0 0
   2 O    1     1.9599     3.7036   75 H    0 0 0
   2 O    1     2.6574     5.0218   79 H    0 1 0
   2 O    1     2.7250     5.1495   10 O    0 0-1

   3 O    1     0.9661     1.8257   57 H    0 0 0
   3 O    1     0.9993     1.8885   58 H    0 1 0
   3 O    1     1.7981     3.3979   77 H    0 0 0
   3 O    1     1.8346     3.4669  156 H    0 1 0
   3 O    1     2.5854     4.8857   23 O    0 1 0
   3 O    1     2.7313     5.1613   13 O    0 0 0

   4 O    1     0.9741     1.8408   60 H    0 0 0
   4 O    1     0.9745     1.8415   59 H    0 0 0
   4 O    1     1.7424     3.2927   80 H    0 0 0
   4 O    1     1.7742     3.3528   99 H    0-1 0
   4 O    1     2.6824     5.0689   14 O    0 0 0
   4 O    1     2.7499     5.1966   24 O    0-1 0

   5 O    1     0.9604     1.8150   62 H    0 0 0
   5 O    1     0.9894     1.8697   61 H    0 0 0
   5 O    1     1.7682     3.3415   69 H    0 0 0
   5 O    1     2.0488     3.8717   76 H    0 0 0
   5 O    1     2.6199     4.9509   29 O    0 0 0
   5 O    1     2.7238     5.1472    9 O    0 0 0

   6 O    1     0.9638     1.8213   64 H    0 0 0
   6 O    1     0.9854     1.8621   63 H    0 0 0
   6 O    1     1.7817     3.3669   74 H    0 0 0
   6 O    1     2.1093     3.9861   90 H    0 0 0
   6 O    1     2.6815     5.0673   30 O    0 0 0
   6 O    1     2.7200     5.1401   11 O    0 0 0

   7 O    1     0.9598     1.8137   66 H    0 0 0
   7 O    1     0.9707     1.8343   65 H    0 0 0
   7 O    1     2.4110     4.5561   57 H    0 0 1
   7 O    1     2.7798     5.2530   76 H    0 0 1
   7 O    1     2.8369     5.3609   31 O    0 0 0
   7 O    1     2.8837     5.4494   72 H    0 0 0

   8 O    1     0.9854     1.8622   67 H    0 0 0
   8 O    1     0.9862     1.8637   68 H    0 0 0
   8 O    1     1.6636     3.1437   70 H    0 0 0
   8 O    1     1.7361     3.2808   96 H    0 0 0
   8 O    1     2.6396     4.9880    9 O    0 0 0
   8 O    1     2.6627     5.0318   18 O    0 0 0

   9 O    1     0.9806     1.8531   69 H    0 0 0
   9 O    1     0.9908     1.8724   70 H    0 0 0
   9 O    1     1.6573     3.1319   53 H    0 0-1
   9 O    1     1.7809     3.3653   93 H    0 0 0
   9 O    1     2.6251     4.9607    1 O    0 0-1
   9 O    1     2.6396     4.9880    8 O    0 0 0

  10 O    1     0.9653     1.8241   72 H    0 0 0
  10 O    1     0.9852     1.8618   71 H    0 0 0
  10 O    1     1.7419     3.2916   83 H    0 0 0
  10 O    1     1.7734     3.3512   56 H    0 0 1
  10 O    1     2.7002     5.1027   16 O    0 1 1
  10 O    1     2.7179     5.1360   33 O    0 0 0

  11 O    1     0.9769     1.8461   74 H    0 0 0
  11 O    1     0.9818     1.8554   73 H    0 0 0
  11 O    1     1.6285     3.0775   85 H    0 0 0
  11 O    1     2.2167     4.1890   97 H    0 0 0
  11 O    1     2.6009     4.9150   17 O    0 0 0
  11 O    1     2.6386     4.9861    1 O    0 0 0

  12 O    1     0.9700     1.8331   75 H    0 0 0
  12 O    1     0.9704     1.8338   76 H    0 0 0
  12 O    1     1.7269     3.2633   67 H    0 0 0
  12 O    1     2.3288     4.4008   72 H    0 0-1
  12 O    1     2.6914     5.0860    8 O    0 0 0
  12 O    1     2.8150     5.3196   56 H    0 0 0

  13 O    1     0.9782     1.8486   77 H    0 0 0
  13 O    1     0.9844     1.8602   78 H    0 0 0
  13 O    1     1.8660     3.5262   54 H    0 1 0
  13 O    1     1.9047     3.5993  149 H    0 0 0
  13 O    1     2.4760     4.6789  102 H    0 0 0
  13 O    1     2.7256     5.1506   15 O    0 0 0

  14 O    1     0.9608     1.8156   79 H    0 0 0
  14 O    1     0.9814     1.8545   80 H    0 0 0
  14 O    1     1.6854     3.1850  152 H    0 0 0
  14 O    1     2.6488     5.0054   50 O    0 0 0
  14 O    1     2.6824     5.0689    4 O    0 0 0
  14 O    1     2.9166     5.5115  132 H    0 0 0

  15 O    1     0.9675     1.8283   81 H    0 0 0
  15 O    1     0.9816     1.8550   82 H    0 0 0
  15 O    1     1.7860     3.3750   78 H    0 0 0
  15 O    1     2.7232     5.1461   22 O    0 0 0
  15 O    1     2.7256     5.1506   13 O    0 0 0
  15 O    1     2.7596     5.2149   86 H    0 0 0

  16 O    1     0.9758     1.8441   84 H    0 0 0
  16 O    1     0.9769     1.8460   83 H    0-1-1
  16 O    1     1.6723     3.1601   98 H    0 0 0
  16 O    1     1.8877     3.5673  151 H    0 0 0
  16 O    1     2.6432     4.9950   23 O    0 0 0
  16 O    1     2.7002     5.1027   10 O    0-1-1

  17 O    1     0.9711     1.8351   86 H    0 0 0
  17 O    1     0.9960     1.8822   85 H    0 0 0
  17 O    1     1.7044     3.2208  150 H    0 0 0
  17 O    1     1.9632     3.7099   91 H    0 0 0
  17 O    1     2.6009     4.9150   11 O    0 0 0
  17 O    1     2.6718     5.0489   49 O    0 0 0

  18 O    1     0.9721     1.8370   88 H    0 0 0
  18 O    1     0.9778     1.8479   87 H    0 0 0
  18 O    1     1.6995     3.2116   68 H    0 0 0
  18 O    1     2.2614     4.2735   64 H    0 0 0
  18 O    1     2.6627     5.0318    8 O    0 0 0
  18 O    1     2.6971     5.0967   19 O    0 0 0

  19 O    1     0.9685     1.8301   90 H    0 0 0
  19 O    1     0.9875     1.8661   89 H    0 0 0
  19 O    1     1.7377     3.2837   87 H    0 0 0
  19 O    1     2.0224     3.8217   86 H    0 0 0
  19 O    1     2.3210     4.3860   62 H    0 0 0
  19 O    1     2.6594     5.0255   24 O    0 0 0

  20 O    1     0.9696     1.8323   91 H    0 0 0
  20 O    1     0.9834     1.8583   92 H    0 0 0
  20 O    1     1.7693     3.3434  155 H    0 0 0
  20 O    1     2.0156     3.8089   88 H    0 0 0
  20 O    1     2.7453     5.1879   52 O    0 0 0
  20 O    1     2.7707     5.2359   34 O    0 0 0

  21 O    1     0.9697     1.8325   94 H    0-1-1
  21 O    1     0.9785     1.8491   93 H    0 0 0
  21 O    1     1.7849     3.3729   84 H    0 0 0
  21 O    1     1.9252     3.6382   81 H    0-1-1
  21 O    1     2.7157     5.1319    9 O    0 0 0
  21 O    1     2.7573     5.2106   16 O    0 0 0

  22 O    1     0.9585     1.8113   95 H    0 0 0
  22 O    1     0.9783     1.8488   96 H    0 1 1
  22 O    1     1.7497     3.3064   82 H    0 0 0
  22 O    1     2.7035     5.1090    8 O    0 1 1
  22 O    1     2.7232     5.1461   15 O    0 0 0
  22 O    1     2.7590     5.2137   59 H    0 1 0

  23 O    1     0.9651     1.8237   97 H    0 0 0
  23 O    1     0.9838     1.8592   98 H    0 0 0
  23 O    1     1.5903     3.0052   58 H    0 0 0
  23 O    1     2.5854     4.8857    3 O    0-1 0
  23 O    1     2.6432     4.9950   16 O    0 0 0
  23 O    1     2.7608     5.2171   80 H    0 0 0

  24 O    1     0.9755     1.8435  100 H    0 0 0
  24 O    1     0.9837     1.8589   99 H    0 0 0
  24 O    1     1.6796     3.1740   89 H    0 0 0
  24 O    1     1.7695     3.3439  154 H    0 0 0
  24 O    1     2.6594     5.0255   19 O    0 0 0
  24 O    1     2.7395     5.1768   51 O    0 0 0

  25 O    1     0.9616     1.8171  102 H    0-1-1
  25 O    1     0.9920     1.8747  101 H    0 0 0
  25 O    1     1.7483     3.3037  121 H    0 0-1
  25 O    1     2.0398     3.8546  125 H    0-1-1
  25 O    1     2.6877     5.0790   34 O    0 0 0
  25 O    1     2.7268     5.1528   35 O    0 0-1

  26 O    1     0.9654     1.8243  103 H    0 0 0
  26 O    1     0.9791     1.8502  104 H    0 0 0
  26 O    1     1.8354     3.4684   55 H    0 0 0
  26 O    1     1.9985     3.7766  123 H    0 0 0
  26 O    1     2.7569     5.2098   38 O    0 1 0
  26 O    1     2.7906     5.2736    2 O    0 0 0

  27 O    1     0.9754     1.8433  105 H    0 0 0
  27 O    1     0.9870     1.8651  106 H    0 0 0
  27 O    1     1.7207     3.2516  131 H    1 0 0
  27 O    1     1.7278     3.2651  144 H    0 0 0
  27 O    1     2.6696     5.0448   40 O    1 0 0
  27 O    1     2.6710     5.0474   52 O    0 0 0

  28 O    1     0.9749     1.8424  107 H    0 0 1
  28 O    1     0.9796     1.8512  108 H    0 0 0
  28 O    1     1.7718     3.3483  111 H    0 0 0
  28 O    1     1.9021     3.5944   59 H    0 0 0
  28 O    1     2.7474     5.1919   30 O    0 0 0
  28 O    1     2.7991     5.2896   39 O    0-1 0

  29 O    1     0.9782     1.8485  110 H    0 0 0
  29 O    1     0.9889     1.8687  109 H    0 0 0
  29 O    1     1.6430     3.1049   61 H    0 0 0
  29 O    1     1.7576     3.3214  119 H    0 0 0
  29 O    1     2.6199     4.9509    5 O    0 0 0
  29 O    1     2.6440     4.9964   31 O    0 0-1

  30 O    1     0.9804     1.8527  112 H    0 0 0
  30 O    1     0.9844     1.8602  111 H    0 0 0
  30 O    1     1.6988     3.2103   63 H    0 0 0
  30 O    1     1.7449     3.2974  117 H    0 0 0
  30 O    1     2.6815     5.0673    6 O    0 0 0
  30 O    1     2.7085     5.1184   42 O    0 0 0

  31 O    1     0.9799     1.8517  113 H    0 0 0
  31 O    1     0.9799     1.8517  114 H    0 0 0
  31 O    1     1.6693     3.1545  109 H    0 0 1
  31 O    1     1.8765     3.5461   65 H    0 0 0
  31 O    1     2.6440     4.9964   29 O    0 0 1
  31 O    1     2.7252     5.1499   43 O    0 0 0

  32 O    1     0.9768     1.8459  115 H    0 0 0
  32 O    1     0.9769     1.8460  116 H    0 0 0
  32 O    1     1.7814     3.3663  139 H    0 0 0
  32 O    1     1.8759     3.5450  107 H    0 0 0
  32 O    1     2.7514     5.1994   44 O    0 0 0
  32 O    1     2.7888     5.2700   50 O    0 0 0

  33 O    1     0.9832     1.8579  117 H    0 0 0
  33 O    1     0.9849     1.8612  118 H    0 0 0
  33 O    1     1.7419     3.2917   71 H    0 0 0
  33 O    1     1.9152     3.6192  141 H    0 0 0
  33 O    1     2.6042     4.9213   95 H    0 0 0
  33 O    1     2.7137     5.1282   30 O    0 0 0

  34 O    1     0.9797     1.8513  119 H    0 0 0
  34 O    1     0.9962     1.8825  120 H    0 0 0
  34 O    1     1.6963     3.2056  101 H    0 0 0
  34 O    1     1.7909     3.3843   92 H    0 0 0
  34 O    1     2.6202     4.9515   46 O    0 0 0
  34 O    1     2.6877     5.0790   25 O    0 0 0

  35 O    1     0.9766     1.8456  122 H    0 0 0
  35 O    1     0.9830     1.8576  121 H    0 0 0
  35 O    1     1.7743     3.3529  147 H    0 0 0
  35 O    1     1.7743     3.3530  113 H    0 0 0
  35 O    1     2.7268     5.1528   25 O    0 0 1
  35 O    1     2.7429     5.1834   31 O    0 0 0

  36 O    1     0.9703     1.8336  123 H    0 0 0
  36 O    1     0.9855     1.8623  124 H    0 0 0
  36 O    1     1.8398     3.4768  145 H    0 0 0
  36 O    1     1.8571     3.5094  115 H    0 0 0
  36 O    1     2.7080     5.1174   51 O    0 0 0
  36 O    1     2.8101     5.3103   47 O   -1 0 0

  37 O    1     0.9700     1.8331  125 H    0 0 0
  37 O    1     0.9779     1.8479  126 H    0 0 0
  37 O    1     1.7708     3.3464  129 H    1 0 0
  37 O    1     1.7792     3.3623  142 H    0 0 0
  37 O    1     2.7382     5.1745   39 O    1 0 0
  37 O    1     2.7459     5.1891   41 O    0 0 0

  38 O    1     0.9700     1.8330  128 H    0 0 0
  38 O    1     0.9868     1.8648  127 H    0 0 0
  38 O    1     1.7957     3.3933  104 H    0-1 0
  38 O    1     1.9433     3.6723  140 H    0 0 0
  38 O    1     2.7112     5.1235   40 O    0 0 0
  38 O    1     2.7569     5.2098   26 O    0-1 0

  39 O    1     0.9799     1.8518  129 H    0 0 0
  39 O    1     0.9846     1.8606  130 H    0 0 0
  39 O    1     1.7195     3.2494  153 H    0 0 0
  39 O    1     1.8205     3.4403  108 H    0 1 0
  39 O    1     2.7066     5.1148   51 O    0 0 0
  39 O    1     2.7119     5.1247   40 O    0 1 0

  40 O    1     0.9842     1.8599  131 H    0 0 0
  40 O    1     0.9886     1.8681  132 H    0 0 0
  40 O    1     1.7298     3.2689  127 H    0 0 0
  40 O    1     1.7302     3.2697  130 H    0-1 0
  40 O    1     2.6696     5.0448   27 O   -1 0 0
  40 O    1     2.6852     5.0743   42 O    0 0 0

  41 O    1     0.9622     1.8184  134 H    0 0 0
  41 O    1     1.0056     1.9003  133 H    0 0 0
  41 O    1     1.7849     3.3729  110 H    0 0 0
[...]
 CHARGE NORMALIZATION FACTOR   1.00000000
 TOTAL ATOMIC CHARGES:
   8.9259788   8.9200389   8.9122950   8.9131507   8.8982305   8.9086398
   8.8812148   8.9402920   8.9368201   8.9045865   8.9370090   8.8867605
   8.9353917   8.8896881   8.9255073   8.9406172   8.9240784   8.9130426
   8.9204447   8.9071027   8.9040549   8.8821520   8.9062616   8.9319864
   8.8925238   8.8992543   8.9346532   8.9188661   8.9409952   8.9349234
   8.9326042   8.9178838   8.9307144   8.9419080   8.9260467   8.9064152
   8.9035648   8.9088203   8.9284779   8.9299915   8.8829759   8.9365500
   8.9148563   8.9071539   8.9259189   8.9348857   8.9038756   8.8911906
   8.9284241   8.9330064   8.9354952   8.9236990   0.5363246   0.5516919
   0.5437598   0.5422510   0.5548388   0.5326785   0.5322016   0.5380582
   0.5291568   0.5684018   0.5288722   0.5628402   0.5562277   0.5930524
   0.5333482   0.5260736   0.5397594   0.5443505   0.5279544   0.5431645
   0.5250701   0.5465181   0.5646998   0.5431735   0.5353042   0.5385572
   0.5833016   0.5293328   0.5811740   0.5422849   0.5262525   0.5277506
   0.5241161   0.5519598   0.5486230   0.5517618   0.5175430   0.5463037
   0.5609952   0.5360066   0.5328000   0.5523913   0.5762749   0.5328041
   0.5678854   0.5329256   0.5180609   0.5306692   0.5295924   0.5685364
   0.5527262   0.5364943   0.5332851   0.5277594   0.5355044   0.5384705
   0.5224734   0.5286096   0.5239597   0.5227437   0.5323460   0.5394366
   0.5411497   0.5390190   0.5380146   0.5354025   0.5379869   0.5216843
   0.5332643   0.5353715   0.5473453   0.5403245   0.5300292   0.5426231
   0.5399099   0.5608808   0.5314004   0.5330598   0.5324486   0.5311735
   0.5293476   0.5777464   0.5404194   0.5253374   0.5384703   0.5275478
   0.5503591   0.5636832   0.5413385   0.5322873   0.5406613   0.5503782
   0.5377508   0.5639346   0.5376056   0.5625902   0.5452340   0.5328216
   0.5390192   0.5373358   0.5349617   0.5305867   0.5335324   0.5434611
 TTTTTTTTTTTTTTTTTTTTTTTTTTTTTT MOQGAD      TELAPSE      687.01 TCPU      686.67
 TTTTTTTTTTTTTTTTTTTTTTTTTTTTTT SHELLXN     TELAPSE      815.05 TCPU      814.69
 TTTTTTTTTTTTTTTTTTTTTTTTTTTTTT MONMO3      TELAPSE      825.16 TCPU      824.80
 NUMERICALLY INTEGRATED DENSITY    520.0000442980
 TTTTTTTTTTTTTTTTTTTTTTTTTTTTTT NUMDFT      TELAPSE      842.85 TCPU      842.49
 CYC   4 ETOT(AU) -3.967291928107E+03 DETOT -1.31E-03 tst  7.63E-07 PX  9.14E-03
 TTTTTTTTTTTTTTTTTTTTTTTTTTTTTT DIIS        TELAPSE      843.60 TCPU      843.24
 DIIS TEST: 0.18263E-02 AT SCF   CYCLE   4 - DIIS ACTIVE - HISTORY:     4 CYCLES
 TTTTTTTTTTTTTTTTTTTTTTTTTTTTTT FDIK        TELAPSE      844.82 TCPU      844.44
 INSULATING STATE
 TOP OF VALENCE BANDS -    BAND    260; K    1; EIG -3.4719410E-01 AU
 BOTTOM OF VIRTUAL BANDS - BAND    261; K    1; EIG -2.6133277E-02 AU
 DIRECT ENERGY BAND GAP:   8.7365 eV
 TTTTTTTTTTTTTTTTTTTTTTTTTTTTTT PDIG        TELAPSE      845.02 TCPU      844.64
 CHARGE NORMALIZATION FACTOR   1.00000000
 TOTAL ATOMIC CHARGES:
   8.9256739   8.9222627   8.9129905   8.9102451   8.9052222   8.9131795
   8.8926447   8.9301519   8.9284398   8.9009313   8.9361481   8.8927872
   8.9341765   8.8936370   8.9265194   8.9354851   8.9221866   8.9146297
   8.9200888   8.9099411   8.9055635   8.8888397   8.9068255   8.9288216
   8.8995376   8.9026869   8.9296949   8.9221602   8.9330902   8.9292046
   8.9281448   8.9152770   8.9326142   8.9381241   8.9218758   8.9094693
   8.9011623   8.9090825   8.9269450   8.9269931   8.8881870   8.9325156
   8.9151303   8.9086459   8.9281245   8.9302349   8.9012224   8.8981049
   8.9279099   8.9355108   8.9306528   8.9226948   0.5374511   0.5521146
   0.5427348   0.5418189   0.5541361   0.5324412   0.5327669   0.5389562
   0.5279375   0.5664751   0.5279868   0.5613531   0.5520522   0.5882928
   0.5356637   0.5286335   0.5416780   0.5478756   0.5287145   0.5441907
   0.5252181   0.5464695   0.5626505   0.5406820   0.5355961   0.5386680
   0.5819900   0.5280837   0.5807891   0.5409740   0.5280361   0.5292973
   0.5245722   0.5528068   0.5486315   0.5511398   0.5178620   0.5462139
   0.5604863   0.5354838   0.5328766   0.5522844   0.5740892   0.5310099
   0.5678724   0.5332549   0.5190401   0.5317294   0.5279347   0.5664278
   0.5510577   0.5351660   0.5350243   0.5294208   0.5347724   0.5377170
   0.5249451   0.5305673   0.5253208   0.5246045   0.5339580   0.5409277
   0.5416603   0.5395294   0.5383429   0.5354023   0.5398184   0.5232525
   0.5337594   0.5365771   0.5462822   0.5400683   0.5301263   0.5430262
   0.5401695   0.5607307   0.5321048   0.5340361   0.5339559   0.5325729
   0.5283714   0.5763490   0.5411411   0.5268885   0.5383731   0.5276551
   0.5501132   0.5633950   0.5405073   0.5317510   0.5420403   0.5526319
   0.5379112   0.5647510   0.5357274   0.5602545   0.5455482   0.5330573
   0.5381781   0.5363167   0.5366048   0.5322737   0.5335283   0.5439040
 TTTTTTTTTTTTTTTTTTTTTTTTTTTTTT MOQGAD      TELAPSE      845.04 TCPU      844.66
 TTTTTTTTTTTTTTTTTTTTTTTTTTTTTT SHELLXN     TELAPSE      972.38 TCPU      971.94
 TTTTTTTTTTTTTTTTTTTTTTTTTTTTTT MONMO3      TELAPSE      982.58 TCPU      982.14
 NUMERICALLY INTEGRATED DENSITY    520.0000443433
 TTTTTTTTTTTTTTTTTTTTTTTTTTTTTT NUMDFT      TELAPSE     1001.87 TCPU     1001.43
 CYC   5 ETOT(AU) -3.967292111369E+03 DETOT -1.83E-04 tst  3.25E-07 PX  6.08E-03
 TTTTTTTTTTTTTTTTTTTTTTTTTTTTTT DIIS        TELAPSE     1005.00 TCPU     1004.56
 DIIS TEST: 0.97405E-03 AT SCF   CYCLE   5 - DIIS ACTIVE - HISTORY:     5 CYCLES
 TTTTTTTTTTTTTTTTTTTTTTTTTTTTTT FDIK        TELAPSE     1007.33 TCPU     1004.84
 INSULATING STATE
 TOP OF VALENCE BANDS -    BAND    260; K    1; EIG -3.4669840E-01 AU
 BOTTOM OF VIRTUAL BANDS - BAND    261; K    1; EIG -2.6086265E-02 AU
 DIRECT ENERGY BAND GAP:   8.7243 eV
 TTTTTTTTTTTTTTTTTTTTTTTTTTTTTT PDIG        TELAPSE     1007.53 TCPU     1005.04
 CHARGE NORMALIZATION FACTOR   1.00000000
 TOTAL ATOMIC CHARGES:
   8.9254707   8.9214304   8.9128612   8.9117357   8.9018086   8.9110933
   8.8877919   8.9351419   8.9322943   8.9027387   8.9367687   8.8900671
   8.9349525   8.8920021   8.9263784   8.9379836   8.9232731   8.9137708
   8.9204046   8.9085824   8.9046644   8.8858226   8.9065391   8.9302185
   8.8961742   8.9014458   8.9317501   8.9205131   8.9369535   8.9321114
   8.9301544   8.9168023   8.9315494   8.9399444   8.9241205   8.9079847
   8.9025887   8.9091195   8.9275216   8.9282008   8.8854362   8.9343059
   8.9148882   8.9078072   8.9272655   8.9321219   8.9028005   8.8949808
   8.9282390   8.9344886   8.9330384   8.9231064   0.5370001   0.5520276
   0.5431331   0.5419494   0.5543898   0.5324804   0.5324395   0.5384814
   0.5284062   0.5676419   0.5282775   0.5621075   0.5536971   0.5904271
   0.5344977   0.5273687   0.5408103   0.5462654   0.5282950   0.5436907
   0.5250068   0.5464040   0.5636668   0.5417091   0.5353379   0.5385135
   0.5827022   0.5284141   0.5810373   0.5412732   0.5271675   0.5285451
   0.5242155   0.5524326   0.5487781   0.5514268   0.5175821   0.5462516
   0.5608307   0.5356935   0.5328181   0.5524605   0.5751834   0.5316205
   0.5678757   0.5330485   0.5184785   0.5313186   0.5285968   0.5676240
   0.5516560   0.5356110   0.5343035   0.5287350   0.5351024   0.5380602
   0.5236984   0.5295933   0.5245871   0.5236329   0.5331865   0.5402718
   0.5413121   0.5391797   0.5382977   0.5353923   0.5389827   0.5224608
   0.5334304   0.5358628   0.5467767   0.5402528   0.5298617   0.5428544
   0.5400276   0.5608215   0.5317744   0.5336529   0.5333507   0.5319609
   0.5288375   0.5773296   0.5408672   0.5261148   0.5384357   0.5276134
   0.5501644   0.5636288   0.5408108   0.5319051   0.5414752   0.5517777
   0.5375792   0.5643697   0.5364974   0.5614284   0.5453808   0.5328928
   0.5384348   0.5367270   0.5358378   0.5314075   0.5334529   0.5437346
 TTTTTTTTTTTTTTTTTTTTTTTTTTTTTT MOQGAD      TELAPSE     1007.55 TCPU     1005.07
 TTTTTTTTTTTTTTTTTTTTTTTTTTTTTT SHELLXN     TELAPSE     1135.02 TCPU     1131.84
 TTTTTTTTTTTTTTTTTTTTTTTTTTTTTT MONMO3      TELAPSE     1144.91 TCPU     1141.72
 NUMERICALLY INTEGRATED DENSITY    520.0000443217
 TTTTTTTTTTTTTTTTTTTTTTTTTTTTTT NUMDFT      TELAPSE     1163.85 TCPU     1160.67
 CYC   6 ETOT(AU) -3.967292287779E+03 DETOT -1.76E-04 tst  5.30E-08 PX  2.47E-03
 TTTTTTTTTTTTTTTTTTTTTTTTTTTTTT DIIS        TELAPSE     1164.69 TCPU     1161.50
 DIIS TEST: 0.64218E-04 AT SCF   CYCLE   6 - DIIS ACTIVE - HISTORY:     6 CYCLES
 TTTTTTTTTTTTTTTTTTTTTTTTTTTTTT FDIK        TELAPSE     1165.92 TCPU     1162.71
 INSULATING STATE
 TOP OF VALENCE BANDS -    BAND    260; K    1; EIG -3.4669972E-01 AU
 BOTTOM OF VIRTUAL BANDS - BAND    261; K    1; EIG -2.6063678E-02 AU
 DIRECT ENERGY BAND GAP:   8.7250 eV
 TTTTTTTTTTTTTTTTTTTTTTTTTTTTTT PDIG        TELAPSE     1166.13 TCPU     1162.92
 CHARGE NORMALIZATION FACTOR   1.00000000
 TOTAL ATOMIC CHARGES:
   8.9259228   8.9213167   8.9127142   8.9114280   8.9024133   8.9113065
   8.8877684   8.9343778   8.9319518   8.9024665   8.9365455   8.8902698
   8.9346965   8.8919403   8.9260455   8.9377207   8.9230165   8.9140344
   8.9202307   8.9087777   8.9050218   8.8860747   8.9066381   8.9302571
   8.8966582   8.9012154   8.9318348   8.9209165   8.9363908   8.9315996
   8.9300780   8.9163536   8.9320014   8.9397561   8.9235788   8.9082648
   8.9020954   8.9089468   8.9276642   8.9283470   8.8861060   8.9342647
   8.9150750   8.9080515   8.9272259   8.9322310   8.9022994   8.8952256
   8.9281746   8.9344997   8.9327064   8.9231707   0.5369087   0.5519245
   0.5431761   0.5420153   0.5544560   0.5325042   0.5325059   0.5385521
   0.5283268   0.5673780   0.5282730   0.5620478   0.5537477   0.5904179
   0.5346961   0.5275546   0.5408719   0.5464192   0.5283268   0.5437979
   0.5250685   0.5464593   0.5635955   0.5416538   0.5354338   0.5386104
   0.5827062   0.5285053   0.5810529   0.5414169   0.5272575   0.5286121
   0.5243154   0.5524961   0.5486608   0.5513631   0.5176469   0.5463118
   0.5607542   0.5356566   0.5327565   0.5523603   0.5750848   0.5316453
   0.5678867   0.5330460   0.5185539   0.5312900   0.5285222   0.5674287
   0.5517629   0.5356892   0.5342628   0.5287003   0.5350120   0.5379571
   0.5238761   0.5297054   0.5247132   0.5237788   0.5332640   0.5402706
   0.5414247   0.5393305   0.5381898   0.5353149   0.5390633   0.5225112
   0.5335579   0.5360237   0.5467241   0.5401813   0.5300411   0.5428943
   0.5400400   0.5608689   0.5317855   0.5335867   0.5332903   0.5319496
   0.5287202   0.5770903   0.5408438   0.5261326   0.5383880   0.5275778
   0.5501559   0.5635410   0.5408216   0.5319493   0.5414291   0.5517117
   0.5377580   0.5644885   0.5364930   0.5613245   0.5453821   0.5329212
   0.5384726   0.5367307   0.5359004   0.5315099   0.5334456   0.5437226
 TTTTTTTTTTTTTTTTTTTTTTTTTTTTTT MOQGAD      TELAPSE     1166.15 TCPU     1162.95
 TTTTTTTTTTTTTTTTTTTTTTTTTTTTTT SHELLXN     TELAPSE     1294.11 TCPU     1290.81
 TTTTTTTTTTTTTTTTTTTTTTTTTTTTTT MONMO3      TELAPSE     1303.97 TCPU     1300.67
 NUMERICALLY INTEGRATED DENSITY    520.0000443253
 TTTTTTTTTTTTTTTTTTTTTTTTTTTTTT NUMDFT      TELAPSE     1322.67 TCPU     1319.34
 CYC   7 ETOT(AU) -3.967292290956E+03 DETOT -3.18E-06 tst  1.03E-09 PX  3.25E-04
 TTTTTTTTTTTTTTTTTTTTTTTTTTTTTT DIIS        TELAPSE     1323.77 TCPU     1320.45
 DIIS TEST: 0.88197E-05 AT SCF   CYCLE   7 - DIIS ACTIVE - HISTORY:     7 CYCLES
 TTTTTTTTTTTTTTTTTTTTTTTTTTTTTT FDIK        TELAPSE     1325.39 TCPU     1321.91
 INSULATING STATE
 TOP OF VALENCE BANDS -    BAND    260; K    1; EIG -3.4680450E-01 AU
 BOTTOM OF VIRTUAL BANDS - BAND    261; K    1; EIG -2.6070917E-02 AU
 DIRECT ENERGY BAND GAP:   8.7276 eV
 TTTTTTTTTTTTTTTTTTTTTTTTTTTTTT PDIG        TELAPSE     1325.59 TCPU     1322.12
 CHARGE NORMALIZATION FACTOR   1.00000000
 TOTAL ATOMIC CHARGES:
   8.9253465   8.9214891   8.9128735   8.9116281   8.9020127   8.9112183
   8.8882384   8.9347690   8.9319820   8.9025659   8.9367240   8.8902670
   8.9348904   8.8921399   8.9264308   8.9377571   8.9231641   8.9137832
   8.9203746   8.9086645   8.9046461   8.8860306   8.9065226   8.9300138
   8.8963665   8.9015839   8.9315462   8.9205794   8.9366829   8.9319218
   8.9299119   8.9167101   8.9315397   8.9397768   8.9239756   8.9080250
   8.9025250   8.9091316   8.9274067   8.9280339   8.8855356   8.9341068
   8.9148548   8.9078383   8.9273057   8.9319036   8.9027265   8.8952109
   8.9281924   8.9345334   8.9328742   8.9230320   0.5370664   0.5520837
   0.5430913   0.5419462   0.5543762   0.5324738   0.5324755   0.5385422
   0.5283991   0.5675509   0.5282636   0.5620774   0.5535627   0.5902185
   0.5345849   0.5274712   0.5409082   0.5463834   0.5283422   0.5437617
   0.5250474   0.5464171   0.5635864   0.5416481   0.5353633   0.5385232
   0.5826332   0.5284062   0.5809720   0.5412730   0.5272575   0.5286234
   0.5242551   0.5524552   0.5487558   0.5514356   0.5176255   0.5462686
   0.5608040   0.5356910   0.5328597   0.5524777   0.5750940   0.5316084
   0.5679027   0.5330742   0.5185782   0.5313618   0.5285839   0.5675431
   0.5516104   0.5355506   0.5343817   0.5288107   0.5350939   0.5380699
   0.5238076   0.5296788   0.5246509   0.5237125   0.5332706   0.5403397
   0.5413361   0.5392216   0.5383082   0.5354275   0.5390578   0.5225447
   0.5334605   0.5359208   0.5467617   0.5402405   0.5299130   0.5428345
   0.5400293   0.5608141   0.5318326   0.5337002   0.5334233   0.5320533
   0.5288053   0.5772993   0.5409030   0.5262144   0.5384564   0.5276463
   0.5501780   0.5636101   0.5408161   0.5318974   0.5415521   0.5518627
   0.5376251   0.5643690   0.5364501   0.5613381   0.5453827   0.5329081
   0.5384398   0.5366899   0.5358983   0.5314903   0.5334871   0.5437555
 TTTTTTTTTTTTTTTTTTTTTTTTTTTTTT MOQGAD      TELAPSE     1325.61 TCPU     1322.14
 TTTTTTTTTTTTTTTTTTTTTTTTTTTTTT SHELLXN     TELAPSE     1452.66 TCPU     1448.80
 TTTTTTTTTTTTTTTTTTTTTTTTTTTTTT MONMO3      TELAPSE     1462.56 TCPU     1458.69
 NUMERICALLY INTEGRATED DENSITY    520.0000443247
 TTTTTTTTTTTTTTTTTTTTTTTTTTTTTT NUMDFT      TELAPSE     1482.20 TCPU     1478.34
 CYC   8 ETOT(AU) -3.967292291138E+03 DETOT -1.83E-07 tst  6.01E-10 PX  2.53E-04
 TTTTTTTTTTTTTTTTTTTTTTTTTTTTTT DIIS        TELAPSE     1483.45 TCPU     1479.59
 DIIS TEST: 0.45790E-05 AT SCF   CYCLE   8 - DIIS ACTIVE - HISTORY:     8 CYCLES
 TTTTTTTTTTTTTTTTTTTTTTTTTTTTTT FDIK        TELAPSE     1484.72 TCPU     1480.68
 INSULATING STATE
 TOP OF VALENCE BANDS -    BAND    260; K    1; EIG -3.4672574E-01 AU
 BOTTOM OF VIRTUAL BANDS - BAND    261; K    1; EIG -2.6068777E-02 AU
 DIRECT ENERGY BAND GAP:   8.7255 eV
 TTTTTTTTTTTTTTTTTTTTTTTTTTTTTT PDIG        TELAPSE     1484.93 TCPU     1480.89
 CHARGE NORMALIZATION FACTOR   1.00000000
 TOTAL ATOMIC CHARGES:
   8.9257352   8.9213666   8.9127672   8.9114984   8.9022318   8.9112578
   8.8878722   8.9345708   8.9319947   8.9025198   8.9366023   8.8902371
   8.9347659   8.8919922   8.9261723   8.9377624   8.9230812   8.9139384
   8.9202712   8.9087116   8.9048893   8.8860331   8.9065979   8.9302144
   8.8965235   8.9013311   8.9317369   8.9207841   8.9365088   8.9317257
   8.9300790   8.9164792   8.9318504   8.9397749   8.9237320   8.9081881
   8.9022351   8.9090014   8.9275786   8.9282449   8.8859099   8.9342232
   8.9149822   8.9079569   8.9272432   8.9321285   8.9024437   8.8951779
   8.9281778   8.9345163   8.9327596   8.9231233   0.5369533   0.5519786
   0.5431546   0.5419928   0.5544291   0.5324959   0.5324919   0.5385443
   0.5283534   0.5674693   0.5282716   0.5620641   0.5536938   0.5903810
   0.5346412   0.5275127   0.5408752   0.5463920   0.5283253   0.5437786
   0.5250537   0.5464458   0.5636099   0.5416592   0.5354090   0.5385805
   0.5826986   0.5284653   0.5810413   0.5413602   0.5272515   0.5286062
   0.5242934   0.5524855   0.5487147   0.5513871   0.5176332   0.5462990
   0.5607875   0.5356743   0.5327849   0.5524045   0.5751033   0.5316255
   0.5678891   0.5330510   0.5185374   0.5313146   0.5285457   0.5674901
   0.5517109   0.5356483   0.5343019   0.5287360   0.5350449   0.5379980
   0.5238318   0.5296919   0.5246816   0.5237493   0.5332471   0.5402830
   0.5413926   0.5392922   0.5382338   0.5353489   0.5390603   0.5225114
   0.5335184   0.5359829   0.5467350   0.5402084   0.5299898   0.5428884
   0.5400412   0.5608587   0.5317952   0.5336288   0.5333388   0.5319786
   0.5287506   0.5771704   0.5408669   0.5261559   0.5384163   0.5276065
   0.5501627   0.5635787   0.5408170   0.5319390   0.5414717   0.5517657
   0.5377009   0.5644583   0.5364843   0.5613552   0.5453900   0.5329170
   0.5384536   0.5367184   0.5359020   0.5314957   0.5334543   0.5437396
 TTTTTTTTTTTTTTTTTTTTTTTTTTTTTT MOQGAD      TELAPSE     1484.95 TCPU     1480.91
 TTTTTTTTTTTTTTTTTTTTTTTTTTTTTT SHELLXN     TELAPSE     1613.43 TCPU     1609.39
 +++ ENERGIES IN A.U. +++
 ::: EXT EL-POLE                                  -3.9183066063915E+03
 ::: EXT EL-SPHEROPOLE                             4.7016994162402E+01
 ::: BIELET ZONE E-E                               5.0234361413607E+03
 ::: TOTAL E-E                                     1.1521465291316E+03
 ::: TOTAL E-N + N-E                              -8.0604488511968E+03
 ::: TOTAL N-N                                    -7.0384543433362E+02
 ::: KINETIC ENERGY                                3.9423024601426E+03
 ::: PSEUDO TOTAL   ENERGY                        -3.6698452962562E+03
 ::: VIRIAL COEFFICIENT                            1.0357924166221E+00
 TTTTTTTTTTTTTTTTTTTTTTTTTTTTTT MONMO3      TELAPSE     1623.27 TCPU     1619.23
 NUMERICALLY INTEGRATED DENSITY    520.0000443248
 TTTTTTTTTTTTTTTTTTTTTTTTTTTTTT NUMDFT      TELAPSE     1642.92 TCPU     1638.88
 CYC   9 ETOT(AU) -3.967292291967E+03 DETOT -8.29E-07 tst  3.37E-10 PX  2.53E-04

 == SCF ENDED - CONVERGENCE ON ENERGY      E(AU) -3.9672922919675E+03 CYCLES   9


 ENERGY EXPRESSION=HARTREE+FOCK EXCH*0.00000+(HSE-3c     EXCH)*1.00000+PBEh-3c    CORR


 TOTAL ENERGY(DFT)(AU)(  9) -3.9672922919675E+03 DE-8.3E-07 tester 3.4E-10
 TTTTTTTTTTTTTTTTTTTTTTTTTTTTTT EDFT        TELAPSE     1642.92 TCPU     1638.88
 
 INFORMATION **** DFTD3 ENERGY **** CALCULATE DFTD3 ENERGY

           DFT-D V3(BJ)
 DF                                         hse3c     
 parameters
 s6       :    1.0000
 s8       :    0.0000
 a1       :    0.4411
 a2       :    4.5182
 k1 k3    :   16.0000   -4.0000
 Cutoff   :   50.2022
 CN-Cutoff:   21.1671
 
 Edisp /kcal,au:   -94.9330 -0.15128537

 E6    /kcal :  -101.5390
 E8    /kcal :     0.0000
 E6(ABC) "   :   6.605975
 
 INFORMATION **** DFTD3 ENERGY **** NORMAL TERMINATION OF DFTD3 MODULE

 GCP ENERGY CALCULATION
  level           hse3c               basis:hse3c
  Nbf            988
  Atoms          156

  Parameters: 
  sigma     1.0000
  eta       1.4086
  alpha     0.2908
  beta      1.9526

  dmp_scal      4.0000
  dmp_exp       6.0000
 cutoffs: 
   distance [bohr] 60.0
   noise    [a.u.] 2.2E-16
 SR-damping   T
 ** gCP correction **
  Egcp:        0.6291306509 / (a.u.) ||     394.7855 / (kcal/mol)
 INFORMATION **** GCP **** NORMAL TERMINATION OF GCP MODULE

 *******************************************************************************

 DFT-D3-GCP DISPERSION AND COUNTERPOISE CORRECTION

 D3 DISPERSION ENERGY (AU)      -1.5128536954111E-01
 GCP ENERGY (AU)                 6.2913065088942E-01
 TOTAL ENERGY + DISP + GCP (AU) -3.9668144466861E+03

 *******************************************************************************

 EIGENVECTORS IN FORTRAN UNIT 10
 TTTTTTTTTTTTTTTTTTTTTTTTTTTTTT END         TELAPSE     1648.53 TCPU     1644.17
 EEEEEEEEEE TERMINATION  DATE 25 03 2019 TIME 18:19:52.5
NODE    0 CPU TIME =      1644.167
NODE    1 CPU TIME =      1646.867
NODE    2 CPU TIME =      1646.657
NODE    3 CPU TIME =      1647.311
NODE    4 CPU TIME =      1647.313
NODE    5 CPU TIME =      1647.303
NODE    6 CPU TIME =      1647.164
NODE    7 CPU TIME =      1641.299
    TOTAL CPU TIME =     13168.081
