 PROCESS            7  OF            8  WORKING
 PROCESS            1  OF            8  WORKING
 PROCESS            5  OF            8  WORKING
 PROCESS            0  OF            8  WORKING
 PROCESS            3  OF            8  WORKING
 PROCESS            2  OF            8  WORKING
 PROCESS            6  OF            8  WORKING
 PROCESS            4  OF            8  WORKING

         
 *******************************************************************************
 *                                                                             *
 *                               CRYSTAL17                                     *
 *                      public : 1.0.1 - Feb 1st, 2017                         *
 *                       HTTP://WWW.CRYSTAL.UNITO.IT                           *
 *                                                                             *
 *                              MAIN AUTHORS                                   *
 *                                                                             *
 *  R. DOVESI(1,11), V.R. SAUNDERS(2), C. ROETTI(1,11), R. ORLANDO(1,11),      *
 *  C.M. ZICOVICH-WILSON(1,3), F. PASCALE(4), B. CIVALLERI(1,11),              *
 *  K. DOLL(5), N.M. HARRISON(2,6), I.J. BUSH(7), Ph. D'ARCO(8),               *
 *  M. LLUNELL(9), M. CAUSA'(10), Y. NOEL(8), L. MASCHIO(1,11), A. ERBA(1,11)  *
 *  M. RE'RAT(14), S. CASASSA(1,11)                                            *
 *                                                                             *
 *        CONTRIBUTIONS TO THE CODE HAVE ALSO BEEN GIVEN BY                    *
 *                                                                             *
 *  M. FERRABONE(1,11), M. DE LA PIERRE(1,11), M. FERRERO(1,11),               *
 *  J. BAIMA(1,11), E. ALBANESE(1,11), M.F. PEINTINGER(12), R. BAST(13),       *
 *  B. KIRTMAN(15), V. LACIVITA(1,11), R. DEMICHELIS(1,16)                     *
 *  G. BRANDEBURG(17), S. SALUSTRO(1,11), G. SANSONE(1,11)                     *
 *  M.T. RUGGIERO(18)                                                          *
 *                                                                             *
 * (1) THEORETICAL CHEMISTRY GROUP - UNIVERSITA' DI TORINO - TORINO (ITALY)    *

 * (2) COMPUTATIONAL SCIENCE & ENGINEERING DEPARTMENT - STFC DARESBURY (UK)    *
 * (3) UNIVERSIDAD AUTONOMA DEL ESTADO DE MORELOS - CUERNAVACA (MEXICO)        *
 * (4) UNIVERSITE' DE LORRAINE - NANCY (FRANCE)                                *
 * (5) UNIVERSITAET STUTTGART- STUTTGART (GERMANY)                             *
 * (6) IMPERIAL COLLEGE - LONDON (UK)                                          *
 * (7) OXFORD E-RESEARCH CENTRE - OXFORD (UK)                                  *
 * (8) UPMC - SORBONNE UNIVERSITES - PARIS (FRANCE)                            *
 * (9) UNIVERSIDAD DE BARCELONA - BARCELONA (SPAIN)                            *
 *(10) UNIVERSITA' DI NAPOLI "FEDERICO II" - NAPOLI (ITALY)                    *
 *(11) NIS - NANOSTRUCTURED INTERFACES AND SURFACES - TORINO (ITALY)           *
 *(12) MPI FUER CHEMISCHE ENERGIEKONVERSION - MUELHEIM AN DER RUHR (GERMANY)   *
 *(13) UNIVERSITY OF TROMSO - TROMSO (NORWAY)                                  *
 *(14) UNIVERSITE' DE PAU ET DES PAYS DE L'ADOUR - PAU (FRANCE)                *
 *(15) UNIVERSITY OF CALIFORNIA SANTA BARBARA - SANTA BARBARA (USA)            *
 *(16) CURTIN UNIVERSITY - PERTH (AUSTRALIA)                                   *
 *(17) UNIVERSITY COLLEGE LONDON - LONDON (UK)                                 *
 *(18) CAMBRIDGE UNIVERSITY - CAMBRIDGE (UK)                                   *
 *                                                                             *
 *******************************************************************************
 EEEEEEEEEE STARTING  DATE 25 03 2019 TIME 17:52:41.0
 !drive by JGB                                                                   

 CRYSTAL CALCULATION
 (INPUT ACCORDING TO THE INTERNATIONAL TABLES FOR X-RAY CRYSTALLOGRAPHY)
 CRYSTAL FAMILY                       :  TETRAGONAL  
 CRYSTAL CLASS  (GROTH - 1921)        :  DITETRAGONAL DIPYRAMIDAL             

 SPACE GROUP (CENTROSYMMETRIC)        :  I 41/A M D      

 LATTICE PARAMETERS  (ANGSTROMS AND DEGREES) - CONVENTIONAL CELL
        A           B           C        ALPHA        BETA       GAMMA
     4.91603     4.91603     7.28964    90.00000    90.00000    90.00000


 NUMBER OF IRREDUCIBLE ATOMS IN THE CONVENTIONAL CELL:    2

 INPUT COORDINATES

 ATOM AT. N.              COORDINATES
   1   8     0.000000000000E+00  7.500000000000E-01  8.669690107733E-01
   2   1     8.424634567016E-01  7.500000000000E-01  9.468950180746E-01

 *******************************************************************************

 << INFORMATION >>: FROM NOW ON, ALL COORDINATES REFER TO THE PRIMITIVE CELL

 *******************************************************************************

 LATTICE PARAMETERS  (ANGSTROMS AND DEGREES) - PRIMITIVE CELL
       A          B          C        ALPHA      BETA     GAMMA        VOLUME
    5.03670    5.03670    5.03670   121.57889 121.57889  87.28636     88.085538

 COORDINATES OF THE EQUIVALENT ATOMS (FRACTIONAL UNITS)

 N. ATOM EQUIV AT. N.          X                  Y                  Z

   1   1   1    8 O    -3.83030989227E-01 -1.33030989227E-01 -2.50000000000E-01
   2   1   2    8 O     3.83030989227E-01  1.33030989227E-01  2.50000000000E-01
   3   1   3    8 O     1.33030989227E-01  3.83030989227E-01 -2.50000000000E-01
   4   1   4    8 O    -1.33030989227E-01 -3.83030989227E-01  2.50000000000E-01

   5   2   1    1 H    -3.03104981925E-01 -2.10641525224E-01 -4.07536543298E-01
   6   2   2    1 H    -3.03104981925E-01  1.04431561373E-01 -9.24634567016E-02
   7   2   3    1 H     3.03104981925E-01 -1.04431561373E-01  9.24634567016E-02
   8   2   4    1 H     3.03104981925E-01  2.10641525224E-01  4.07536543298E-01
   9   2   5    1 H     2.10641525224E-01  3.03104981925E-01 -9.24634567016E-02
  10   2   6    1 H    -1.04431561373E-01  3.03104981925E-01 -4.07536543298E-01
  11   2   7    1 H     1.04431561373E-01 -3.03104981925E-01  4.07536543298E-01
  12   2   8    1 H    -2.10641525224E-01 -3.03104981925E-01  9.24634567016E-02

 NUMBER OF SYMMETRY OPERATORS         :   16
 *******************************************************************************
 * GEOMETRY EDITING - INPUT COORDINATES ARE GIVEN IN ANGSTROM         
 *******************************************************************************

 GEOMETRY NOW FULLY CONSISTENT WITH THE GROUP

 GCALCO - MAX INDICES DIRECT LATTICE VECTOR    14    14    16
 NO.OF VECTORS CREATED 6999 STARS  477 RMAX   100.04271 BOHR

 GEOMETRY FOR WAVE FUNCTION - DIMENSIONALITY OF THE SYSTEM    3
 (NON PERIODIC DIRECTION: LATTICE PARAMETER FORMALLY SET TO 500)
 *******************************************************************************
 LATTICE PARAMETERS (ANGSTROMS AND DEGREES) - BOHR = 0.5291772083 ANGSTROM
 PRIMITIVE CELL - CENTRING CODE 6/0 VOLUME=    88.085538 - DENSITY  1.358 g/cm^3
         A              B              C           ALPHA      BETA       GAMMA 
     5.03670244     5.03670244     5.03670244   121.578894 121.578894  87.286361
 *******************************************************************************
 ATOMS IN THE ASYMMETRIC UNIT    2 - ATOMS IN THE UNIT CELL:   12
     ATOM                 X/A                 Y/B                 Z/C    
 *******************************************************************************
      1 T   8 O    -3.830309892267E-01 -1.330309892267E-01 -2.500000000000E-01
      2 F   8 O     3.830309892267E-01  1.330309892267E-01  2.500000000000E-01
      3 F   8 O     1.330309892267E-01  3.830309892267E-01 -2.500000000000E-01
      4 F   8 O    -1.330309892267E-01 -3.830309892267E-01  2.500000000000E-01
      5 T   1 H    -3.031049819255E-01 -2.106415252238E-01 -4.075365432984E-01
      6 F   1 H    -3.031049819255E-01  1.044315613729E-01 -9.246345670160E-02
      7 F   1 H     3.031049819254E-01 -1.044315613729E-01  9.246345670160E-02
      8 F   1 H     3.031049819254E-01  2.106415252238E-01  4.075365432984E-01
      9 F   1 H     2.106415252239E-01  3.031049819254E-01 -9.246345670160E-02
     10 F   1 H    -1.044315613729E-01  3.031049819255E-01 -4.075365432984E-01
     11 F   1 H     1.044315613729E-01 -3.031049819254E-01  4.075365432984E-01
     12 F   1 H    -2.106415252239E-01 -3.031049819254E-01  9.246345670160E-02

 TRANSFORMATION MATRIX PRIMITIVE-CRYSTALLOGRAPHIC CELL
  0.0000  1.0000  1.0000  1.0000  0.0000  1.0000  1.0000  1.0000  0.0000

 *******************************************************************************
 CRYSTALLOGRAPHIC CELL (VOLUME=        176.17107508)
         A              B              C           ALPHA      BETA       GAMMA 
     4.91602741     4.91602741     7.28963886    90.000000  90.000000  90.000000

 COORDINATES IN THE CRYSTALLOGRAPHIC CELL
     ATOM                 X/A                 Y/B                 Z/C    
 *******************************************************************************
      1 T   8 O     4.780320952373E-17 -2.500000000000E-01 -1.330309892267E-01
      2 F   8 O     0.000000000000E+00  2.500000000000E-01  1.330309892267E-01
      3 F   8 O    -5.000000000000E-01  2.500000000000E-01 -1.169690107733E-01
      4 F   8 O    -5.000000000000E-01 -2.500000000000E-01  1.169690107733E-01
      5 T   1 H    -1.575365432984E-01 -2.500000000000E-01 -5.310498192545E-02
      6 F   1 H     1.575365432984E-01 -2.500000000000E-01 -5.310498192545E-02
      7 F   1 H    -1.575365432984E-01  2.500000000000E-01  5.310498192545E-02
      8 F   1 H     1.575365432984E-01  2.500000000000E-01  5.310498192545E-02
      9 F   1 H    -1.792620357140E-17 -9.246345670160E-02  3.031049819254E-01
     10 F   1 H    -5.000000000000E-01  9.246345670160E-02 -1.968950180745E-01
     11 F   1 H    -5.000000000000E-01 -9.246345670160E-02  1.968950180745E-01
     12 F   1 H     7.170481428559E-17  9.246345670160E-02 -3.031049819254E-01

 T = ATOM BELONGING TO THE ASYMMETRIC UNIT

 ****   16 SYMMOPS - TRANSLATORS IN FRACTIONAL UNITS
 **** MATRICES AND TRANSLATORS IN THE CRYSTALLOGRAPHIC REFERENCE FRAME
   V INV                    ROTATION MATRICES                   TRANSLATORS
   1   1  1.00  0.00  0.00  0.00  1.00  0.00  0.00  0.00  1.00  0.00  0.00  0.00
   2   2  0.00  1.00 -1.00  1.00  0.00 -1.00 -0.00  0.00 -1.00  0.50 -0.00  0.50
   3   3 -1.00 -0.00  0.00 -1.00 -0.00  1.00 -1.00  1.00 -0.00  0.00  0.00  0.00
   4   4 -0.00 -1.00  1.00 -0.00 -1.00  0.00  1.00 -1.00  0.00  0.50 -0.00  0.50
   5   5 -0.00 -1.00  0.00 -1.00  0.00  0.00 -0.00  0.00 -1.00  1.00  1.00  0.50
   6   6 -1.00 -0.00  1.00  0.00 -1.00  1.00  0.00 -0.00  1.00  1.00  0.50  1.00
   7   8  1.00  0.00 -1.00  1.00  0.00  0.00  1.00 -1.00  0.00  1.00  1.00  0.50
   8   7  0.00  1.00 -0.00  0.00  1.00 -1.00 -1.00  1.00 -0.00  1.00  0.50  1.00
   9   9 -1.00 -0.00  0.00  0.00 -1.00  0.00 -0.00  0.00 -1.00  0.00  0.00  0.00
  10  10 -0.00 -1.00  1.00 -1.00  0.00  1.00  0.00 -0.00  1.00  0.50 -0.00  0.50
  11  11  1.00  0.00 -0.00  1.00  0.00 -1.00  1.00 -1.00  0.00  0.00  0.00  0.00
  12  12  0.00  1.00 -1.00  0.00  1.00  0.00 -1.00  1.00 -0.00  0.50 -0.00  0.50
  13  13  0.00  1.00 -0.00  1.00 -0.00  0.00  0.00 -0.00  1.00  1.00  1.00  0.50
  14  14  1.00  0.00 -1.00 -0.00  1.00 -1.00 -0.00  0.00 -1.00  1.00  0.50  1.00
  15  16 -1.00 -0.00  1.00 -1.00  0.00 -0.00 -1.00  1.00 -0.00  1.00  1.00  0.50
  16  15 -0.00 -1.00  0.00  0.00 -1.00  1.00  1.00 -1.00  0.00  1.00  0.50  1.00

 DIRECT LATTICE VECTORS CARTESIAN COMPONENTS (ANGSTROM)
          X                    Y                    Z
  -0.245801370500E+01   0.245801370500E+01   0.364481943000E+01
   0.245801370500E+01  -0.245801370500E+01   0.364481943000E+01
   0.245801370500E+01   0.245801370500E+01  -0.364481943000E+01


 CARTESIAN COORDINATES - PRIMITIVE CELL
 *******************************************************************************
 *      ATOM          X(ANGSTROM)         Y(ANGSTROM)         Z(ANGSTROM)
 *******************************************************************************
    1     8 O     2.350018883046E-16 -1.229006852500E+00 -9.697478686512E-01
    2     8 O     0.000000000000E+00  1.229006852500E+00  9.697478686512E-01
    3     8 O    -2.458013705000E+00  1.229006852500E+00 -8.526618463488E-01
    4     8 O    -2.458013705000E+00 -1.229006852500E+00  8.526618463488E-01
    5     1 H    -7.744539649316E-01 -1.229006852500E+00 -3.871161399034E-01
    6     1 H     7.744539649316E-01 -1.229006852500E+00 -3.871161399034E-01
    7     1 H    -7.744539649316E-01  1.229006852500E+00  3.871161399034E-01
    8     1 H     7.744539649316E-01  1.229006852500E+00  3.871161399034E-01
    9     1 H    -8.812570811423E-17 -4.545528875684E-01  2.209525854903E+00
   10     1 H    -2.458013705000E+00  4.545528875684E-01 -1.435293575097E+00
   11     1 H    -2.458013705000E+00 -4.545528875684E-01  1.435293575097E+00
   12     1 H     3.525028324569E-16  4.545528875684E-01 -2.209525854903E+00

 *******************************************************************************
 STARTING BASIS SET HANDLING 
 *******************************************************************************

 Loading internal basis set: DEF2-MSVP           

 Please cite in your publication:
 Fully Optimized Contracted Gaussian Basis Sets for Atoms Li to Kr. A. Schäfer, 
 H. Horn and R. Ahlrichs; J. Chem. Phys. 97, 2571 (1992).                       
                                                                                
                    
 S. Grimme, J. G. Brandenburg, C. Bannwarth, and A. Hansen, J. Chem. Phys., 143,
  054107 (2015).                                                                
                                                                                
                    

 *******************************************************************************
 LOCAL ATOMIC FUNCTIONS BASIS SET
 *******************************************************************************
   ATOM   X(AU)   Y(AU)   Z(AU)  N. TYPE  EXPONENT  S COEF   P COEF   D/F/G COEF
 *******************************************************************************
   1 O    0.000  -2.322  -1.833
                                  1 S  
                                         6.773E+03 1.727E-03 0.000E+00 0.000E+00
                                         1.017E+03 1.325E-02 0.000E+00 0.000E+00
                                         2.313E+02 6.603E-02 0.000E+00 0.000E+00
                                         6.501E+01 2.353E-01 0.000E+00 0.000E+00
                                         2.050E+01 5.498E-01 0.000E+00 0.000E+00
                                  2 S  
                                         6.716E+00 1.000E+00 0.000E+00 0.000E+00
                                  3 S  
                                         1.147E+00 1.000E+00 0.000E+00 0.000E+00
                                  4 S  
                                         3.342E-01 1.000E+00 0.000E+00 0.000E+00
                           5-     7 P  
                                         1.769E+01 0.000E+00 4.359E-02 0.000E+00
                                         3.854E+00 0.000E+00 2.318E-01 0.000E+00
                                         1.047E+00 0.000E+00 5.146E-01 0.000E+00
                           8-    10 P  
                                         2.759E-01 0.000E+00 1.000E+00 0.000E+00
                          11-    15 D  
                                         8.000E-01 0.000E+00 0.000E+00 1.000E+00
   2 O    0.000   2.322   1.833
   3 O   -4.645   2.322  -1.611
   4 O   -4.645  -2.322   1.611
   5 H   -1.464  -2.322  -0.732
                                 61 S  
                                         1.874E+01 1.968E-02 0.000E+00 0.000E+00
                                         2.826E+00 1.380E-01 0.000E+00 0.000E+00
                                         6.401E-01 4.783E-01 0.000E+00 0.000E+00
                                 62 S  
                                         1.756E-01 1.000E+00 0.000E+00 0.000E+00
   6 H    1.464  -2.322  -0.732
   7 H   -1.464   2.322   0.732
   8 H    1.464   2.322   0.732
   9 H   -0.000  -0.859   4.175
  10 H   -4.645   0.859  -2.712
  11 H   -4.645  -0.859   2.712
  12 H    0.000   0.859  -4.175

 *******************************************************************************
 FINISHED BASIS SET HANDLING 
 *******************************************************************************

 INFORMATION **** SET_MPP **** PCRYSTAL CALCULATION
 INFORMATION **** READM2 **** NEW DEFAULT: FOCK/KS MATRIX MIXING SET TO 30 %
 INFORMATION **** READM2 **** NEW DEFAULT: FULL DIRECT SCF MODE
 INFORMATION **** READM2 **** NEW DEFAULT: COULOMB BIPOLAR BUFFER SET TO 32 Mb
 INFORMATION **** READM2 **** NEW DEFAULT: EXCHANGE BIPOLAR BUFFER SET TO 32 Mb

 *******************************************************************************
 NEW DEFAULT: DFT INTEGRATION GRID INCREASED TO XLGRID
 NEW DEFAULT: DIIS ACCELERATOR ACTIVE
 USE KEYWORD NODIIS TO TURN IT OFF
 *******************************************************************************

 INFORMATION **** RDDFTP **** HSE-3c calculation
 INFORMATION **** RDDFTP **** HSE screened hybrid functional combined with D3 and gCP

PLEASE CITE:
(1) HSE-3c Reference
 J. G. Brandenburg, E. Caldeweyer, and S. Grimme, 
 Phys. Chem. Chem. Phys. 18, 15519 (2016)
(2) DFT-D3 Reference
 S. Grimme, J. Antony, S. Ehrlich,
 and H. Krieg, J. Chem. Phys. 132, 154104 (2010)
(3) gCP Reference
 H. Kruse and S. Grimme J. Chem. Phys, 136, 154101 (2012)
 J. G. Brandenburg, M. Alessio, B. Civalleri, M. F. Peintinger
 T. Bredow, and S. Grimme, J. Phys. Chem. A, 117, 9282 (2013) 

 WARNING **** RDDFTP **** HSE3c-HJS ACTIVE
 RANGE SEPARATION - OMEGA:   0.110000000000000     
 WARNING **** RDDFTP **** HSE-3c has to be combined with def2-mSVP basis set
 WARNING **** RDDFTP **** Note: Harmonic frequencies are scaled by 0.95
 WARNING **** RDDFTP **** as recommended in original publication
 INFORMATION **** BIPOSIZE **** COULOMB BIPOLAR BUFFER SET TO    60000000
 INFORMATION **** EXCHSIZE **** EXCHANGE BIPOLAR BUFFER SIZE SET TO    40000000
 *******************************************************************************
 N. OF ATOMS PER CELL        12  COULOMB OVERLAP TOL         (T1) 10**   -6
 NUMBER OF SHELLS            44  COULOMB PENETRATION TOL     (T2) 10**   -6
 NUMBER OF AO                76  EXCHANGE OVERLAP TOL        (T3) 10**   -6
 N. OF ELECTRONS PER CELL    40  EXCHANGE PSEUDO OVP (F(G))  (T4) 10**   -6
 CORE ELECTRONS PER CELL      8  EXCHANGE PSEUDO OVP (P(G))  (T5) 10**  -12
 N. OF SYMMETRY OPERATORS    16  POLE ORDER IN MONO ZONE                  4
 *******************************************************************************
 TYPE OF CALCULATION :  RESTRICTED CLOSED SHELL
 KOHN-SHAM HAMILTONIAN

 (EXCHANGE)[CORRELATION] FUNCTIONAL:(HSE-3c)[PBEh-3c]

 RANGE-SEPARATED HYBRID FUNCTIONAL 
 OMEGA (SHORT-RANGE)[LONG-RANGE]:(    0.1100)[    0.0000]

 HYBRID EXCHANGE - PERCENTAGE OF FOCK EXCHANGE    42.0000

 CAPPA:IS1  3;IS2  3;IS3  3; K PTS MONK NET   6; SYMMOPS:K SPACE  16;G SPACE  16

 *******************************************************************************
 MAX NUMBER OF SCF CYCLES      50  CONVERGENCE ON DELTAP        10**-16
 WEIGHT OF F(I) IN F(I+1)      30% CONVERGENCE ON ENERGY        10**- 6
 S(K) EIGENV. THRESHOLD  10*10.**-4
 SHRINK. FACT.(MONKH.)    3  3  3  NUMBER OF K POINTS IN THE IBZ      6
 SHRINKING FACTOR(GILAT NET)    3  NUMBER OF K POINTS(GILAT NET)      6
 *******************************************************************************
 *** K POINTS COORDINATES (OBLIQUE COORDINATES IN UNITS OF IS =  3)
   1-R(  0  0  0)   2-C(  1  0  0)   3-C(  1  1  0)   4-C(  2  1  0)
   5-C(  2  1  1)   6-C(  2  2  1)

 DIRECT LATTICE VECTORS COMPON. (A.U.)     RECIP. LATTICE VECTORS COMPON. (A.U.) 
        X            Y            Z              X            Y            Z
   -4.6449727    4.6449727    6.8877105      0.0000000    0.6763425    0.4561157
    4.6449727   -4.6449727    6.8877105      0.6763425    0.0000000    0.4561157
    4.6449727    4.6449727   -6.8877105      0.6763425    0.6763425    0.0000000

 DISK SPACE FOR EIGENVECTORS (FTN 10)       63536 REALS

 SYMMETRY ADAPTION OF THE BLOCH FUNCTIONS ENABLED
 TTTTTTTTTTTTTTTTTTTTTTTTTTTTTT gordsh1     TELAPSE        0.32 TCPU        0.04

 MATRIX SIZE: P(G)   54448, F(G)    9308, P(G) IRR    2877, F(G) IRR    1118
 MAX G-VECTOR INDEX FOR 1- AND 2-ELECTRON INTEGRALS 131

 TTTTTTTTTTTTTTTTTTTTTTTTTTTTTT INPUT       TELAPSE        0.32 TCPU        0.05

 NEIGHBORS OF THE NON-EQUIVALENT ATOMS

 N = NUMBER OF NEIGHBORS AT DISTANCE R
    ATOM  N     R/ANG      R/AU   NEIGHBORS (ATOM LABELS AND CELL INDICES)
   1 O    2     0.9691     1.8314    5 H    0 0 0    6 H    0 0 0
   1 O    2     2.0908     3.9510   11 H   -1 0 0   12 H    0 0 0
   1 O    2     2.8406     5.3680    7 H   -1 0 0    8 H   -1-1-1
   1 O    4     2.9125     5.5038    7 H    0 0 0    7 H   -1 0-1    8 H   -1 0-1
                                     8 H    0 0 0
   1 O    2     2.9916     5.6534    2 O   -1-1-1    2 O   -1 0 0
   1 O    4     3.0154     5.6984    9 H   -1 0 0    9 H   -1-1-1   10 H    0 0 0
                                    10 H    0 1 1

   5 H    1     0.9691     1.8314    1 O    0 0 0
   5 H    1     1.5489     2.9270    6 H    0 0 0
   5 H    1     2.0908     3.9510    4 O    0 0 0
   5 H    2     2.5771     4.8699    7 H    0 0 0    7 H   -1 0-1
   5 H    4     2.5991     4.9116   11 H    0 0 0   11 H   -1 0 0   12 H    0 0 0
                                    12 H    0 0-1
   5 H    2     2.6014     4.9160    9 H   -1-1-1   10 H    0 0 0


 SYMMETRY ALLOWED INTERNAL DEGREE(S) OF FREEDOM:   3
 TTTTTTTTTTTTTTTTTTTTTTTTTTTTTT SYMM        TELAPSE        0.51 TCPU        0.23
 TTTTTTTTTTTTTTTTTTTTTTTTTTTTTT INT_SCREEN  TELAPSE        0.52 TCPU        0.23

 DFT PARAMETERS

     ATOM       ELECTRONS   NET CHARGE   R(ANGSTROM)
   1   8  O       8.0000      0.0000     0.74000000
   5   1  H       1.0000      0.0000     1.11000000

 SIZE OF GRID=      16916
 TTTTTTTTTTTTTTTTTTTTTTTTTTTTTT MAKE_GRID2  TELAPSE        2.07 TCPU        1.78
 BECKE WEIGHT FUNCTION
 RADSAFE =     2.00
 TOLERANCES - DENSITY:10**- 6; POTENTIAL:10**- 9; GRID WGT:10**-14

 RADIAL INTEGRATION  - INTERVALS (POINTS,UPPER LIMIT):            1( 75,  4.0*R)

 ANGULAR INTEGRATION - INTERVALS (ACCURACY LEVEL [N. POINTS] UPPER LIMIT):
  1(  4[  86]   0.2)  2(  8[ 194]   0.5)  3( 12[ 350]   0.9)  4( 16[ 974]   3.5)
  5( 12[ 350]9999.0)
 TTTTTTTTTTTTTTTTTTTTTTTTTTTTTT INT_CALC    TELAPSE        2.09 TCPU        1.80
 EEEEEEEEEE INT_CALC TERMINATION  DATE 25 03 2019 TIME 17:52:42.9

 *******************************************************************************
 !drive by JGB                                                                   
 CRYSTAL - SCF - TYPE OF CALCULATION :  RESTRICTED CLOSED SHELL
 *******************************************************************************

 CAPPA:IS1  3;IS2  3;IS3  3; K PTS MONK NET   6; SYMMOPS:K SPACE  16;G SPACE  16

 TTTTTTTTTTTTTTTTTTTTTTTTTTTTTT SDIK        TELAPSE        2.12 TCPU        1.81

 AAAAAAAAAAAAAAAAAAAAAAAAAAAAAAAAAAAAAAAAAAAAAAAAAAAAAAAAAAAAAAAAAAAAAAAAAAAAAAA
         ATOMIC WAVEFUNCTION(S)


 NUCLEAR CHARGE  8.0  SYMMETRY SPECIES            S    P
 N. ELECTRONS    8.0  NUMBER OF PRIMITIVE GTOS    8    4
                      NUMBER OF CONTRACTED GTOS   4    2
                      NUMBER OF CLOSED SHELLS     2    0
                      OPEN SHELL OCCUPATION       0    4

  ZNUC SCFIT  TOTAL HF ENERGY   KINETIC ENERGY   VIRIAL THEOREM ACCURACY
   8.0  12   -7.477373220E+01  7.477365593E+01 -2.000001020E+00  3.8E-06

 NUCLEAR CHARGE  1.0  SYMMETRY SPECIES            S
 N. ELECTRONS    1.0  NUMBER OF PRIMITIVE GTOS    4
                      NUMBER OF CONTRACTED GTOS   2
                      NUMBER OF CLOSED SHELLS     0
                      OPEN SHELL OCCUPATION       1

  ZNUC SCFIT  TOTAL HF ENERGY   KINETIC ENERGY   VIRIAL THEOREM ACCURACY
   1.0   1   -4.977266687E-01  5.190767460E-01 -1.958869132E+00  1.8E-16

 AAAAAAAAAAAAAAAAAAAAAAAAAAAAAAAAAAAAAAAAAAAAAAAAAAAAAAAAAAAAAAAAAAAAAAAAAAAAAAA

 CHARGE NORMALIZATION FACTOR   1.00000000
 TOTAL ATOMIC CHARGES:
   8.0000000   8.0000000   8.0000000   8.0000000   1.0000000   1.0000000
   1.0000000   1.0000000   1.0000000   1.0000000   1.0000000   1.0000000
 TTTTTTTTTTTTTTTTTTTTTTTTTTTTTT MOQGAD      TELAPSE        2.12 TCPU        1.81
 TTTTTTTTTTTTTTTTTTTTTTTTTTTTTT SHELLXN     TELAPSE        3.41 TCPU        3.10
 TTTTTTTTTTTTTTTTTTTTTTTTTTTTTT MONMO3      TELAPSE        3.42 TCPU        3.11
 NUMERICALLY INTEGRATED DENSITY     39.9999435677
 TTTTTTTTTTTTTTTTTTTTTTTTTTTTTT NUMDFT      TELAPSE        3.48 TCPU        3.17
 CYC   0 ETOT(AU) -3.051395338498E+02 DETOT -3.05E+02 tst  0.00E+00 PX  1.00E+00
 TTTTTTTTTTTTTTTTTTTTTTTTTTTTTT DIIS        TELAPSE        3.49 TCPU        3.17
 TTTTTTTTTTTTTTTTTTTTTTTTTTTTTT FDIK        TELAPSE        6.58 TCPU        5.81
 INSULATING STATE
 TOP OF VALENCE BANDS -    BAND     20; K    5; EIG -4.1262289E-01 AU
 TOP OF VALENCE BANDS -    BAND     20; K    1; EIG -4.1765967E-01 AU
 BOTTOM OF VIRTUAL BANDS - BAND     21; K    1; EIG -1.1897412E-01 AU
 INDIRECT ENERGY BAND GAP:   7.9906 eV
 TTTTTTTTTTTTTTTTTTTTTTTTTTTTTT PDIG        TELAPSE        6.58 TCPU        5.81
 CHARGE NORMALIZATION FACTOR   1.00000000
 TOTAL ATOMIC CHARGES:
   9.0602922   9.0602922   9.0602922   9.0602922   0.4698539   0.4698539
   0.4698539   0.4698539   0.4698539   0.4698539   0.4698539   0.4698539
 TTTTTTTTTTTTTTTTTTTTTTTTTTTTTT MOQGAD      TELAPSE        6.58 TCPU        5.81
 TTTTTTTTTTTTTTTTTTTTTTTTTTTTTT SHELLXN     TELAPSE        7.89 TCPU        7.12
 TTTTTTTTTTTTTTTTTTTTTTTTTTTTTT MONMO3      TELAPSE        7.90 TCPU        7.13
 NUMERICALLY INTEGRATED DENSITY     39.9999324229
 TTTTTTTTTTTTTTTTTTTTTTTTTTTTTT NUMDFT      TELAPSE        8.02 TCPU        7.25
 CYC   1 ETOT(AU) -3.050440245416E+02 DETOT  9.55E-02 tst  0.00E+00 PX  1.00E+00
 TTTTTTTTTTTTTTTTTTTTTTTTTTTTTT DIIS        TELAPSE        8.20 TCPU        7.42
 DIIS TEST: 0.36363E+00 AT SCF   CYCLE   1 - MIX   30 %
 TTTTTTTTTTTTTTTTTTTTTTTTTTTTTT FDIK        TELAPSE        8.20 TCPU        7.42
 INSULATING STATE
 TOP OF VALENCE BANDS -    BAND     20; K    5; EIG -3.1571318E-01 AU
 TOP OF VALENCE BANDS -    BAND     20; K    1; EIG -3.2189051E-01 AU
 BOTTOM OF VIRTUAL BANDS - BAND     21; K    1; EIG -5.8605347E-02 AU
 INDIRECT ENERGY BAND GAP:   6.9963 eV
 TTTTTTTTTTTTTTTTTTTTTTTTTTTTTT PDIG        TELAPSE        8.20 TCPU        7.42
 CHARGE NORMALIZATION FACTOR   1.00000000
 TOTAL ATOMIC CHARGES:
   8.8111583   8.8111583   8.8111583   8.8111583   0.5944208   0.5944208
   0.5944208   0.5944208   0.5944208   0.5944208   0.5944208   0.5944208
 TTTTTTTTTTTTTTTTTTTTTTTTTTTTTT MOQGAD      TELAPSE        8.21 TCPU        7.42
 TTTTTTTTTTTTTTTTTTTTTTTTTTTTTT SHELLXN     TELAPSE        9.52 TCPU        8.73
 TTTTTTTTTTTTTTTTTTTTTTTTTTTTTT MONMO3      TELAPSE        9.53 TCPU        8.74
 NUMERICALLY INTEGRATED DENSITY     39.9999243727
 TTTTTTTTTTTTTTTTTTTTTTTTTTTTTT NUMDFT      TELAPSE        9.65 TCPU        8.87
 CYC   2 ETOT(AU) -3.051387266200E+02 DETOT -9.47E-02 tst  3.90E-03 PX  1.35E-01
 TTTTTTTTTTTTTTTTTTTTTTTTTTTTTT DIIS        TELAPSE        9.65 TCPU        8.87
 DIIS TEST: 0.90933E-01 AT SCF   CYCLE   2 - DIIS ACTIVE - HISTORY:     2 CYCLES
 TTTTTTTTTTTTTTTTTTTTTTTTTTTTTT FDIK        TELAPSE        9.67 TCPU        8.87
 INSULATING STATE
 TOP OF VALENCE BANDS -    BAND     20; K    5; EIG -3.6964987E-01 AU
 TOP OF VALENCE BANDS -    BAND     20; K    1; EIG -3.7517111E-01 AU
 BOTTOM OF VIRTUAL BANDS - BAND     21; K    1; EIG -6.5175503E-02 AU
 INDIRECT ENERGY BAND GAP:   8.2852 eV
 TTTTTTTTTTTTTTTTTTTTTTTTTTTTTT PDIG        TELAPSE        9.67 TCPU        8.87
 CHARGE NORMALIZATION FACTOR   1.00000000
 TOTAL ATOMIC CHARGES:
   8.8961640   8.8961640   8.8961640   8.8961640   0.5519180   0.5519180
   0.5519180   0.5519180   0.5519180   0.5519180   0.5519180   0.5519180
 TTTTTTTTTTTTTTTTTTTTTTTTTTTTTT MOQGAD      TELAPSE        9.68 TCPU        8.87
 TTTTTTTTTTTTTTTTTTTTTTTTTTTTTT SHELLXN     TELAPSE       10.99 TCPU       10.18
 TTTTTTTTTTTTTTTTTTTTTTTTTTTTTT MONMO3      TELAPSE       11.00 TCPU       10.19
 NUMERICALLY INTEGRATED DENSITY     39.9999274132
 TTTTTTTTTTTTTTTTTTTTTTTTTTTTTT NUMDFT      TELAPSE       11.12 TCPU       10.31
 CYC   3 ETOT(AU) -3.051710356791E+02 DETOT -3.23E-02 tst  5.43E-04 PX  5.27E-02
 TTTTTTTTTTTTTTTTTTTTTTTTTTTTTT DIIS        TELAPSE       11.12 TCPU       10.32
 DIIS TEST: 0.45433E-03 AT SCF   CYCLE   3 - DIIS ACTIVE - HISTORY:     3 CYCLES
 TTTTTTTTTTTTTTTTTTTTTTTTTTTTTT FDIK        TELAPSE       11.12 TCPU       10.32
 INSULATING STATE
 TOP OF VALENCE BANDS -    BAND     20; K    5; EIG -3.6649644E-01 AU
 TOP OF VALENCE BANDS -    BAND     20; K    1; EIG -3.7203264E-01 AU
 BOTTOM OF VIRTUAL BANDS - BAND     21; K    1; EIG -6.1683054E-02 AU
 INDIRECT ENERGY BAND GAP:   8.2944 eV
 TTTTTTTTTTTTTTTTTTTTTTTTTTTTTT PDIG        TELAPSE       11.13 TCPU       10.32
 CHARGE NORMALIZATION FACTOR   1.00000000
 TOTAL ATOMIC CHARGES:
   8.8920742   8.8920742   8.8920742   8.8920742   0.5539629   0.5539629
   0.5539629   0.5539629   0.5539629   0.5539629   0.5539629   0.5539629
 TTTTTTTTTTTTTTTTTTTTTTTTTTTTTT MOQGAD      TELAPSE       11.13 TCPU       10.32
 TTTTTTTTTTTTTTTTTTTTTTTTTTTTTT SHELLXN     TELAPSE       12.44 TCPU       11.63
 TTTTTTTTTTTTTTTTTTTTTTTTTTTTTT MONMO3      TELAPSE       12.45 TCPU       11.64
 NUMERICALLY INTEGRATED DENSITY     39.9999271719
 TTTTTTTTTTTTTTTTTTTTTTTTTTTTTT NUMDFT      TELAPSE       12.57 TCPU       11.76
 CYC   4 ETOT(AU) -3.051711492535E+02 DETOT -1.14E-04 tst  2.80E-06 PX  1.92E-03
 TTTTTTTTTTTTTTTTTTTTTTTTTTTTTT DIIS        TELAPSE       12.57 TCPU       11.76
 DIIS TEST: 0.10153E-04 AT SCF   CYCLE   4 - DIIS ACTIVE - HISTORY:     4 CYCLES
 TTTTTTTTTTTTTTTTTTTTTTTTTTTTTT FDIK        TELAPSE       12.57 TCPU       11.76
 INSULATING STATE
 TOP OF VALENCE BANDS -    BAND     20; K    5; EIG -3.6625805E-01 AU
 TOP OF VALENCE BANDS -    BAND     20; K    1; EIG -3.7178287E-01 AU
 BOTTOM OF VIRTUAL BANDS - BAND     21; K    1; EIG -6.1219651E-02 AU
 INDIRECT ENERGY BAND GAP:   8.3005 eV
 TTTTTTTTTTTTTTTTTTTTTTTTTTTTTT PDIG        TELAPSE       12.58 TCPU       11.77
 CHARGE NORMALIZATION FACTOR   1.00000000
 TOTAL ATOMIC CHARGES:
   8.8916946   8.8916946   8.8916946   8.8916946   0.5541527   0.5541527
   0.5541527   0.5541527   0.5541527   0.5541527   0.5541527   0.5541527
 TTTTTTTTTTTTTTTTTTTTTTTTTTTTTT MOQGAD      TELAPSE       12.58 TCPU       11.77
 TTTTTTTTTTTTTTTTTTTTTTTTTTTTTT SHELLXN     TELAPSE       13.89 TCPU       13.08
 TTTTTTTTTTTTTTTTTTTTTTTTTTTTTT MONMO3      TELAPSE       13.90 TCPU       13.09
 NUMERICALLY INTEGRATED DENSITY     39.9999271605
 TTTTTTTTTTTTTTTTTTTTTTTTTTTTTT NUMDFT      TELAPSE       14.02 TCPU       13.21
 CYC   5 ETOT(AU) -3.051711522287E+02 DETOT -2.98E-06 tst  6.34E-08 PX  3.69E-04
 TTTTTTTTTTTTTTTTTTTTTTTTTTTTTT DIIS        TELAPSE       14.02 TCPU       13.21
 DIIS TEST: 0.13874E-06 AT SCF   CYCLE   5 - DIIS ACTIVE - HISTORY:     5 CYCLES
 TTTTTTTTTTTTTTTTTTTTTTTTTTTTTT FDIK        TELAPSE       14.05 TCPU       13.21
 INSULATING STATE
 TOP OF VALENCE BANDS -    BAND     20; K    5; EIG -3.6620621E-01 AU
 TOP OF VALENCE BANDS -    BAND     20; K    1; EIG -3.7172931E-01 AU
 BOTTOM OF VIRTUAL BANDS - BAND     21; K    1; EIG -6.1163446E-02 AU
 INDIRECT ENERGY BAND GAP:   8.3006 eV
 TTTTTTTTTTTTTTTTTTTTTTTTTTTTTT PDIG        TELAPSE       14.05 TCPU       13.21
 CHARGE NORMALIZATION FACTOR   1.00000000
 TOTAL ATOMIC CHARGES:
   8.8915988   8.8915988   8.8915988   8.8915988   0.5542006   0.5542006
   0.5542006   0.5542006   0.5542006   0.5542006   0.5542006   0.5542006
 TTTTTTTTTTTTTTTTTTTTTTTTTTTTTT MOQGAD      TELAPSE       14.05 TCPU       13.21
 TTTTTTTTTTTTTTTTTTTTTTTTTTTTTT SHELLXN     TELAPSE       15.36 TCPU       14.52
 TTTTTTTTTTTTTTTTTTTTTTTTTTTTTT MONMO3      TELAPSE       15.38 TCPU       14.53
 NUMERICALLY INTEGRATED DENSITY     39.9999271556
 TTTTTTTTTTTTTTTTTTTTTTTTTTTTTT NUMDFT      TELAPSE       15.49 TCPU       14.65
 CYC   6 ETOT(AU) -3.051711522180E+02 DETOT  1.08E-08 tst  1.22E-09 PX  7.51E-05
 TTTTTTTTTTTTTTTTTTTTTTTTTTTTTT DIIS        TELAPSE       15.50 TCPU       14.65
 DIIS TEST: 0.74724E-09 AT SCF   CYCLE   6 - DIIS ACTIVE - HISTORY:     6 CYCLES
 TTTTTTTTTTTTTTTTTTTTTTTTTTTTTT FDIK        TELAPSE       15.50 TCPU       14.66
 INSULATING STATE
 TOP OF VALENCE BANDS -    BAND     20; K    5; EIG -3.6620387E-01 AU
 TOP OF VALENCE BANDS -    BAND     20; K    1; EIG -3.7172672E-01 AU
 BOTTOM OF VIRTUAL BANDS - BAND     21; K    1; EIG -6.1160173E-02 AU
 INDIRECT ENERGY BAND GAP:   8.3007 eV
 TTTTTTTTTTTTTTTTTTTTTTTTTTTTTT PDIG        TELAPSE       15.50 TCPU       14.66
 CHARGE NORMALIZATION FACTOR   1.00000000
 TOTAL ATOMIC CHARGES:
   8.8915905   8.8915905   8.8915905   8.8915905   0.5542047   0.5542047
   0.5542047   0.5542047   0.5542047   0.5542047   0.5542047   0.5542047
 TTTTTTTTTTTTTTTTTTTTTTTTTTTTTT MOQGAD      TELAPSE       15.51 TCPU       14.66
 TTTTTTTTTTTTTTTTTTTTTTTTTTTTTT SHELLXN     TELAPSE       16.82 TCPU       15.97
 +++ ENERGIES IN A.U. +++
 ::: EXT EL-POLE                                  -3.7805092843700E+02
 ::: EXT EL-SPHEROPOLE                             4.5328443602646E+00
 ::: BIELET ZONE E-E                               4.4853379645701E+02
 ::: TOTAL E-E                                     7.5015712380270E+01
 ::: TOTAL E-N + N-E                              -5.9133571456051E+02
 ::: TOTAL N-N                                    -6.9167012352119E+01
 ::: KINETIC ENERGY                                3.0316396002165E+02
 ::: PSEUDO TOTAL   ENERGY                        -2.8232305451070E+02
 ::: VIRIAL COEFFICIENT                            1.0355958458406E+00
 TTTTTTTTTTTTTTTTTTTTTTTTTTTTTT MONMO3      TELAPSE       16.83 TCPU       15.98
 NUMERICALLY INTEGRATED DENSITY     39.9999271553
 TTTTTTTTTTTTTTTTTTTTTTTTTTTTTT NUMDFT      TELAPSE       16.95 TCPU       16.10
 CYC   7 ETOT(AU) -3.051711522147E+02 DETOT  3.26E-09 tst  1.17E-11 PX  7.51E-05

 == SCF ENDED - CONVERGENCE ON ENERGY      E(AU) -3.0517115221471E+02 CYCLES   7


 ENERGY EXPRESSION=HARTREE+FOCK EXCH*0.00000+(HSE-3c     EXCH)*1.00000+PBEh-3c    CORR


 TOTAL ENERGY(DFT)(AU)(  7) -3.0517115221471E+02 DE 3.3E-09 tester 1.2E-11
 TTTTTTTTTTTTTTTTTTTTTTTTTTTTTT EDFT        TELAPSE       16.95 TCPU       16.10
 
 INFORMATION **** DFTD3 ENERGY **** CALCULATE DFTD3 ENERGY

           DFT-D V3(BJ)
 DF                                         hse3c     
 parameters
 s6       :    1.0000
 s8       :    0.0000
 a1       :    0.4411
 a2       :    4.5182
 k1 k3    :   16.0000   -4.0000
 Cutoff   :   50.2022
 CN-Cutoff:   21.1671
 
 Edisp /kcal,au:    -9.1469 -0.01457646

 E6    /kcal :    -9.9008
 E8    /kcal :     0.0000
 E6(ABC) "   :   0.753957
 
 INFORMATION **** DFTD3 ENERGY **** NORMAL TERMINATION OF DFTD3 MODULE

 GCP ENERGY CALCULATION
  level           hse3c               basis:hse3c
  Nbf             76
  Atoms           12

  Parameters: 
  sigma     1.0000
  eta       1.4086
  alpha     0.2908
  beta      1.9526

  dmp_scal      4.0000
  dmp_exp       6.0000
 cutoffs: 
   distance [bohr] 60.0
   noise    [a.u.] 2.2E-16
 SR-damping   T
 ** gCP correction **
  Egcp:        0.0461793476 / (a.u.) ||      28.9780 / (kcal/mol)
 INFORMATION **** GCP **** NORMAL TERMINATION OF GCP MODULE

 *******************************************************************************

 DFT-D3-GCP DISPERSION AND COUNTERPOISE CORRECTION

 D3 DISPERSION ENERGY (AU)      -1.4576462599131E-02
 GCP ENERGY (AU)                 4.6179347607422E-02
 TOTAL ENERGY + DISP + GCP (AU) -3.0513954932971E+02

 *******************************************************************************

 EIGENVECTORS IN FORTRAN UNIT 10
 TTTTTTTTTTTTTTTTTTTTTTTTTTTTTT END         TELAPSE       17.61 TCPU       16.66
 EEEEEEEEEE TERMINATION  DATE 25 03 2019 TIME 17:52:58.4
NODE    0 CPU TIME =        16.664
NODE    1 CPU TIME =        17.249
NODE    2 CPU TIME =        14.144
NODE    3 CPU TIME =        17.263
NODE    4 CPU TIME =        16.829
NODE    5 CPU TIME =        17.253
NODE    6 CPU TIME =        14.221
NODE    7 CPU TIME =        14.182
    TOTAL CPU TIME =       127.805
