 PROCESS            0  OF            8  WORKING

         
 *******************************************************************************
 *                                                                             *
 *                               CRYSTAL17                                     *
 *                      public : 1.0.1 - Feb 1st, 2017                         *
 *                       HTTP://WWW.CRYSTAL.UNITO.IT                           *
 *                                                                             *
 *                              MAIN AUTHORS                                   *
 *                                                                             *
 *  R. DOVESI(1,11), V.R. SAUNDERS(2), C. ROETTI(1,11), R. ORLANDO(1,11),      *
 *  C.M. ZICOVICH-WILSON(1,3), F. PASCALE(4), B. CIVALLERI(1,11),              *
 *  K. DOLL(5), N.M. HARRISON(2,6), I.J. BUSH(7), Ph. D'ARCO(8),               *
 *  M. LLUNELL(9), M. CAUSA'(10), Y. NOEL(8), L. MASCHIO(1,11), A. ERBA(1,11)  *
 *  M. RE'RAT(14), S. CASASSA(1,11)                                            *
 *                                                                             *
 *        CONTRIBUTIONS TO THE CODE HAVE ALSO BEEN GIVEN BY                    *
 *                                                                             *
 *  M. FERRABONE(1,11), M. DE LA PIERRE(1,11), M. FERRERO(1,11),               *
 *  J. BAIMA(1,11), E. ALBANESE(1,11), M.F. PEINTINGER(12), R. BAST(13),       *
 *  B. KIRTMAN(15), V. LACIVITA(1,11), R. DEMICHELIS(1,16)                     *
 *  G. BRANDEBURG(17), S. SALUSTRO(1,11), G. SANSONE(1,11)                     *
 *  M.T. RUGGIERO(18)                                                          *
 *                                                                             *
 * (1) THEORETICAL CHEMISTRY GROUP - UNIVERSITA' DI TORINO - TORINO (ITALY)    *

 * (2) COMPUTATIONAL SCIENCE & ENGINEERING DEPARTMENT - STFC DARESBURY (UK)    *
 * (3) UNIVERSIDAD AUTONOMA DEL ESTADO DE MORELOS - CUERNAVACA (MEXICO)        *
 * (4) UNIVERSITE' DE LORRAINE - NANCY (FRANCE)                                *
 * (5) UNIVERSITAET STUTTGART- STUTTGART (GERMANY)                             *
 * (6) IMPERIAL COLLEGE - LONDON (UK)                                          *
 * (7) OXFORD E-RESEARCH CENTRE - OXFORD (UK)                                  *
 * (8) UPMC - SORBONNE UNIVERSITES - PARIS (FRANCE)                            *
 * (9) UNIVERSIDAD DE BARCELONA - BARCELONA (SPAIN)                            *
 *(10) UNIVERSITA' DI NAPOLI "FEDERICO II" - NAPOLI (ITALY)                    *
 *(11) NIS - NANOSTRUCTURED INTERFACES AND SURFACES - TORINO (ITALY)           *
 *(12) MPI FUER CHEMISCHE ENERGIEKONVERSION - MUELHEIM AN DER RUHR (GERMANY)   *
 *(13) UNIVERSITY OF TROMSO - TROMSO (NORWAY)                                  *
 *(14) UNIVERSITE' DE PAU ET DES PAYS DE L'ADOUR - PAU (FRANCE)                *
 *(15) UNIVERSITY OF CALIFORNIA SANTA BARBARA - SANTA BARBARA (USA)            *
 *(16) CURTIN UNIVERSITY - PERTH (AUSTRALIA)                                   *
 *(17) UNIVERSITY COLLEGE LONDON - LONDON (UK)                                 *
 *(18) CAMBRIDGE UNIVERSITY - CAMBRIDGE (UK)                                   *
 *                                                                             *
 *******************************************************************************
 EEEEEEEEEE STARTING  DATE 25 03 2019 TIME 17:53:12.2
 PROCESS            4  OF            8  WORKING
 PROCESS            6  OF            8  WORKING
 !drive by JGB                                                                   
 PROCESS            7  OF            8  WORKING
 PROCESS            2  OF            8  WORKING

 CRYSTAL CALCULATION
 (INPUT ACCORDING TO THE INTERNATIONAL TABLES FOR X-RAY CRYSTALLOGRAPHY)
 CRYSTAL FAMILY                       :  TRICLINIC   
 CRYSTAL CLASS  (GROTH - 1921)        :  TRICLINIC PINAKOIDAL                 

 SPACE GROUP (CENTROSYMMETRIC)        :  P -1            

 LATTICE PARAMETERS  (ANGSTROMS AND DEGREES) - CONVENTIONAL CELL
        A           B           C        ALPHA        BETA       GAMMA
     5.81230     6.19076     6.22548    89.07491    89.59744    89.33330


 NUMBER OF IRREDUCIBLE ATOMS IN THE CONVENTIONAL CELL:   15

 INPUT COORDINATES

 ATOM AT. N.              COORDINATES
   1   8     3.706394329403E-01  2.505116018982E-01  4.681641455308E-01
   2   8     1.340783740608E-01  5.377596904311E-01  7.565813168572E-01
   3   8     3.594987877305E-01  2.463248606090E-01  2.507453149243E-02
   4   8     7.445628228965E-01  2.525731594097E-01  7.507081531875E-01
   5   8     1.214964905179E-01  9.832675984610E-01  7.473189480662E-01
   6   1     5.166891898813E-01  2.500000000000E-01  5.447995956176E-01
   7   1     2.811765996545E-01  1.368625564858E-01  5.389321977800E-01
   8   1     2.064086523622E-01  4.585055338146E-01  8.760150444371E-01
   9   1     2.080000451946E-01  4.747039961239E-01  6.313302610452E-01
  10   1     3.732520795548E-01  2.455342059758E-01  1.818119365617E-01
  11   1     5.130565713010E-01  2.467587123420E-01  9.616999004892E-01
  12   1     8.579985717973E-01  1.342201134085E-01  7.464414959968E-01
  13   1     8.393279240040E-01  3.808426183376E-01  7.504519181927E-01
  14   1     1.257118960309E-01  8.251100164752E-01  7.560649871104E-01
  15   1     2.009741622348E-01  3.929561930561E-02  8.716607959488E-01
 PROCESS            3  OF            8  WORKING

 *******************************************************************************

 << INFORMATION >>: FROM NOW ON, ALL COORDINATES REFER TO THE PRIMITIVE CELL

 *******************************************************************************

 LATTICE PARAMETERS  (ANGSTROMS AND DEGREES) - PRIMITIVE CELL
       A          B          C        ALPHA      BETA     GAMMA        VOLUME
    5.81230    6.19076    6.22548    89.07491  89.59744  89.33330    223.959144

 COORDINATES OF THE EQUIVALENT ATOMS (FRACTIONAL UNITS)

 N. ATOM EQUIV AT. N.          X                  Y                  Z

   1   1   1    8 O     3.70639432940E-01  2.50511601898E-01  4.68164145531E-01
   2   1   2    8 O    -3.70639432940E-01 -2.50511601898E-01 -4.68164145531E-01

   3   2   1    8 O     1.34078374061E-01 -4.62240309569E-01 -2.43418683143E-01
   4   2   2    8 O    -1.34078374061E-01  4.62240309569E-01  2.43418683143E-01

   5   3   1    8 O     3.59498787730E-01  2.46324860609E-01  2.50745314924E-02
   6   3   2    8 O    -3.59498787730E-01 -2.46324860609E-01 -2.50745314924E-02

   7   4   1    8 O    -2.55437177104E-01  2.52573159410E-01 -2.49291846813E-01
   8   4   2    8 O     2.55437177104E-01 -2.52573159410E-01  2.49291846813E-01

   9   5   1    8 O     1.21496490518E-01 -1.67324015390E-02 -2.52681051934E-01
  10   5   2    8 O    -1.21496490518E-01  1.67324015390E-02  2.52681051934E-01

  11   6   1    1 H    -4.83310810119E-01  2.50000000000E-01 -4.55200404382E-01
  12   6   2    1 H     4.83310810119E-01 -2.50000000000E-01  4.55200404382E-01

  13   7   1    1 H     2.81176599654E-01  1.36862556486E-01 -4.61067802220E-01
  14   7   2    1 H    -2.81176599654E-01 -1.36862556486E-01  4.61067802220E-01

  15   8   1    1 H     2.06408652362E-01  4.58505533815E-01 -1.23984955563E-01
  16   8   2    1 H    -2.06408652362E-01 -4.58505533815E-01  1.23984955563E-01

  17   9   1    1 H     2.08000045195E-01  4.74703996124E-01 -3.68669738955E-01
  18   9   2    1 H    -2.08000045195E-01 -4.74703996124E-01  3.68669738955E-01

  19  10   1    1 H     3.73252079555E-01  2.45534205976E-01  1.81811936562E-01
  20  10   2    1 H    -3.73252079555E-01 -2.45534205976E-01 -1.81811936562E-01

  21  11   1    1 H    -4.86943428699E-01  2.46758712342E-01 -3.83000995108E-02
  22  11   2    1 H     4.86943428699E-01 -2.46758712342E-01  3.83000995108E-02

  23  12   1    1 H    -1.42001428203E-01  1.34220113409E-01 -2.53558504003E-01
  24  12   2    1 H     1.42001428203E-01 -1.34220113409E-01  2.53558504003E-01

  25  13   1    1 H    -1.60672075996E-01  3.80842618338E-01 -2.49548081807E-01
  26  13   2    1 H     1.60672075996E-01 -3.80842618338E-01  2.49548081807E-01

  27  14   1    1 H     1.25711896031E-01 -1.74889983525E-01 -2.43935012890E-01
  28  14   2    1 H    -1.25711896031E-01  1.74889983525E-01  2.43935012890E-01

  29  15   1    1 H     2.00974162235E-01  3.92956193056E-02 -1.28339204051E-01
  30  15   2    1 H    -2.00974162235E-01 -3.92956193056E-02  1.28339204051E-01

 NUMBER OF SYMMETRY OPERATORS         :    2
 *******************************************************************************
 * GEOMETRY EDITING - INPUT COORDINATES ARE GIVEN IN ANGSTROM         
 *******************************************************************************

 GEOMETRY NOW FULLY CONSISTENT WITH THE GROUP
 PROCESS            1  OF            8  WORKING
 PROCESS            5  OF            8  WORKING

 GCALCO - MAX INDICES DIRECT LATTICE VECTOR    15    15    14
 NO.OF VECTORS CREATED 6999 STARS 3500 RMAX   136.20077 BOHR

 GEOMETRY FOR WAVE FUNCTION - DIMENSIONALITY OF THE SYSTEM    3
 (NON PERIODIC DIRECTION: LATTICE PARAMETER FORMALLY SET TO 500)
 *******************************************************************************
 LATTICE PARAMETERS (ANGSTROMS AND DEGREES) - BOHR = 0.5291772083 ANGSTROM
 PRIMITIVE CELL - CENTRING CODE 1/0 VOLUME=   223.959144 - DENSITY  1.335 g/cm^3
         A              B              C           ALPHA      BETA       GAMMA 
     5.81230233     6.19076075     6.22547871    89.074907  89.597435  89.333305
 *******************************************************************************
 ATOMS IN THE ASYMMETRIC UNIT   15 - ATOMS IN THE UNIT CELL:   30
     ATOM                 X/A                 Y/B                 Z/C    
 *******************************************************************************
      1 T   8 O     3.706394329403E-01  2.505116018982E-01  4.681641455308E-01
      2 F   8 O    -3.706394329403E-01 -2.505116018982E-01 -4.681641455308E-01
      3 T   8 O     1.340783740608E-01 -4.622403095689E-01 -2.434186831428E-01
      4 F   8 O    -1.340783740608E-01  4.622403095689E-01  2.434186831428E-01
      5 T   8 O     3.594987877305E-01  2.463248606090E-01  2.507453149243E-02
      6 F   8 O    -3.594987877305E-01 -2.463248606090E-01 -2.507453149243E-02
      7 T   8 O    -2.554371771035E-01  2.525731594097E-01 -2.492918468125E-01
      8 F   8 O     2.554371771035E-01 -2.525731594097E-01  2.492918468125E-01
      9 T   8 O     1.214964905179E-01 -1.673240153898E-02 -2.526810519338E-01
     10 F   8 O    -1.214964905179E-01  1.673240153898E-02  2.526810519338E-01
     11 T   1 H    -4.833108101187E-01  2.500000000000E-01 -4.552004043824E-01
     12 F   1 H     4.833108101187E-01 -2.500000000000E-01  4.552004043824E-01
     13 T   1 H     2.811765996545E-01  1.368625564858E-01 -4.610678022200E-01
     14 F   1 H    -2.811765996545E-01 -1.368625564858E-01  4.610678022200E-01
     15 T   1 H     2.064086523622E-01  4.585055338146E-01 -1.239849555629E-01
     16 F   1 H    -2.064086523622E-01 -4.585055338146E-01  1.239849555629E-01
     17 T   1 H     2.080000451946E-01  4.747039961239E-01 -3.686697389548E-01
     18 F   1 H    -2.080000451946E-01 -4.747039961239E-01  3.686697389548E-01
     19 T   1 H     3.732520795548E-01  2.455342059758E-01  1.818119365617E-01
     20 F   1 H    -3.732520795548E-01 -2.455342059758E-01 -1.818119365617E-01
     21 T   1 H    -4.869434286990E-01  2.467587123420E-01 -3.830009951076E-02
     22 F   1 H     4.869434286990E-01 -2.467587123420E-01  3.830009951076E-02
     23 T   1 H    -1.420014282027E-01  1.342201134085E-01 -2.535585040032E-01
     24 F   1 H     1.420014282027E-01 -1.342201134085E-01  2.535585040032E-01
     25 T   1 H    -1.606720759960E-01  3.808426183376E-01 -2.495480818073E-01
     26 F   1 H     1.606720759960E-01 -3.808426183376E-01  2.495480818073E-01
     27 T   1 H     1.257118960309E-01 -1.748899835248E-01 -2.439350128896E-01
     28 F   1 H    -1.257118960309E-01  1.748899835248E-01  2.439350128896E-01
     29 T   1 H     2.009741622348E-01  3.929561930561E-02 -1.283392040512E-01
     30 F   1 H    -2.009741622348E-01 -3.929561930561E-02  1.283392040512E-01

 T = ATOM BELONGING TO THE ASYMMETRIC UNIT

 ****    2 SYMMOPS - TRANSLATORS IN FRACTIONAL UNITS
 **** MATRICES AND TRANSLATORS IN THE CRYSTALLOGRAPHIC REFERENCE FRAME
   V INV                    ROTATION MATRICES                   TRANSLATORS
   1   1  1.00  0.00  0.00  0.00  1.00  0.00  0.00  0.00  1.00  0.00  0.00  0.00
   2   2 -1.00  0.00  0.00 -0.00 -1.00  0.00  0.00  0.00 -1.00  0.00  0.00  0.00

 DIRECT LATTICE VECTORS CARTESIAN COMPONENTS (ANGSTROM)
          X                    Y                    Z
   0.581190885021E+01   0.676305565744E-01   0.000000000000E+00
   0.000000000000E+00   0.619076075000E+01   0.000000000000E+00
   0.425737328808E-01   0.100511706141E+00   0.622452167181E+01


 CARTESIAN COORDINATES - PRIMITIVE CELL
 *******************************************************************************
 *      ATOM          X(ANGSTROM)         Y(ANGSTROM)         Z(ANGSTROM)
 *******************************************************************************
    1     8 O     2.174054095818E+00  1.622979920611E+00  2.914097869822E+00
    2     8 O    -2.174054095818E+00 -1.622979920611E+00 -2.914097869822E+00
    3     8 O     7.688880468313E-01 -2.877017797634E+00 -1.515164868546E+00
    4     8 O    -7.688880468313E-01  2.877017797634E+00  1.515164868546E+00
    5     8 O     2.090441702456E+00  1.551771665850E+00  1.560769646852E-01
    6     8 O    -2.090441702456E+00 -1.551771665850E+00 -1.560769646852E-01
    7     8 O    -1.495190874776E+00  1.521287894470E+00 -1.551722503091E+00
    8     8 O     1.495190874776E+00 -1.521287894470E+00  1.551722503091E+00
    9     8 O     6.953689529013E-01 -1.207668230646E-01 -1.572818683818E+00
   10     8 O    -6.953689529013E-01  1.207668230646E-01  1.572818683818E+00
   11     1 H    -2.828337955154E+00  1.469250639133E+00 -2.833404782096E+00
   12     1 H     2.828337955154E+00 -1.469250639133E+00  2.833404782096E+00
   13     1 H     1.614543390552E+00  8.199567613195E-01 -2.869926527093E+00
   14     1 H    -1.614543390552E+00 -8.199567613195E-01  2.869926527093E+00
   15     1 H     1.194349771044E+00  2.839995655019E+00 -7.717470428800E-01
   16     1 H    -1.194349771044E+00 -2.839995655019E+00  7.717470428800E-01
   17     1 H     1.193181656523E+00  2.915790401431E+00 -2.294792779866E+00
   18     1 H    -1.193181656523E+00 -2.915790401431E+00  2.294792779866E+00
   19     1 H     2.177047477345E+00  1.563560998961E+00  1.131692339322E+00
   20     1 H    -2.177047477345E+00 -1.563560998961E+00 -1.131692339322E+00
   21     1 H    -2.831701401013E+00  1.490842287637E+00 -2.383997994373E-01
   22     1 H     2.831701401013E+00 -1.490842287637E+00  2.383997994373E-01
   23     1 H    -8.360942893327E-01  7.958353764823E-01 -1.578280403240E+00
   24     1 H     8.360942893327E-01 -7.958353764823E-01  1.578280403240E+00
   25     1 H    -9.444356538384E-01  2.321756688139E+00 -1.553317443369E+00
   26     1 H     9.444356538384E-01 -2.321756688139E+00  1.553317443369E+00
   27     1 H     7.202408570395E-01 -1.098718404410E+00 -1.518378774245E+00
   28     1 H    -7.202408570395E-01  1.098718404410E+00  1.518378774245E+00
   29     1 H     1.162579633164E+00  2.439621797292E-01 -7.988501569598E-01
   30     1 H    -1.162579633164E+00 -2.439621797292E-01  7.988501569598E-01

 *******************************************************************************
 STARTING BASIS SET HANDLING 
 *******************************************************************************

 Loading internal basis set: DEF2-MSVP           

 Please cite in your publication:
 Fully Optimized Contracted Gaussian Basis Sets for Atoms Li to Kr. A. Schäfer, 
 H. Horn and R. Ahlrichs; J. Chem. Phys. 97, 2571 (1992).                       
                                                                                
                    
 S. Grimme, J. G. Brandenburg, C. Bannwarth, and A. Hansen, J. Chem. Phys., 143,
  054107 (2015).                                                                
                                                                                
                    

 *******************************************************************************
 LOCAL ATOMIC FUNCTIONS BASIS SET
 *******************************************************************************
   ATOM   X(AU)   Y(AU)   Z(AU)  N. TYPE  EXPONENT  S COEF   P COEF   D/F/G COEF
 *******************************************************************************
   1 O    4.108   3.067   5.507
                                  1 S  
                                         6.773E+03 1.727E-03 0.000E+00 0.000E+00
                                         1.017E+03 1.325E-02 0.000E+00 0.000E+00
                                         2.313E+02 6.603E-02 0.000E+00 0.000E+00
                                         6.501E+01 2.353E-01 0.000E+00 0.000E+00
                                         2.050E+01 5.498E-01 0.000E+00 0.000E+00
                                  2 S  
                                         6.716E+00 1.000E+00 0.000E+00 0.000E+00
                                  3 S  
                                         1.147E+00 1.000E+00 0.000E+00 0.000E+00
                                  4 S  
                                         3.342E-01 1.000E+00 0.000E+00 0.000E+00
                           5-     7 P  
                                         1.769E+01 0.000E+00 4.359E-02 0.000E+00
                                         3.854E+00 0.000E+00 2.318E-01 0.000E+00
                                         1.047E+00 0.000E+00 5.146E-01 0.000E+00
                           8-    10 P  
                                         2.759E-01 0.000E+00 1.000E+00 0.000E+00
                          11-    15 D  
                                         8.000E-01 0.000E+00 0.000E+00 1.000E+00
   2 O   -4.108  -3.067  -5.507
   3 O    1.453  -5.437  -2.863
   4 O   -1.453   5.437   2.863
   5 O    3.950   2.932   0.295
   6 O   -3.950  -2.932  -0.295
   7 O   -2.826   2.875  -2.932
   8 O    2.826  -2.875   2.932
   9 O    1.314  -0.228  -2.972
  10 O   -1.314   0.228   2.972
  11 H   -5.345   2.776  -5.354
                                151 S  
                                         1.874E+01 1.968E-02 0.000E+00 0.000E+00
                                         2.826E+00 1.380E-01 0.000E+00 0.000E+00
                                         6.401E-01 4.783E-01 0.000E+00 0.000E+00
                                152 S  
                                         1.756E-01 1.000E+00 0.000E+00 0.000E+00
  12 H    5.345  -2.776   5.354
  13 H    3.051   1.549  -5.423
  14 H   -3.051  -1.549   5.423
  15 H    2.257   5.367  -1.458
  16 H   -2.257  -5.367   1.458
  17 H    2.255   5.510  -4.337
  18 H   -2.255  -5.510   4.337
  19 H    4.114   2.955   2.139
  20 H   -4.114  -2.955  -2.139
  21 H   -5.351   2.817  -0.451
  22 H    5.351  -2.817   0.451
  23 H   -1.580   1.504  -2.983
  24 H    1.580  -1.504   2.983
  25 H   -1.785   4.387  -2.935
  26 H    1.785  -4.387   2.935
  27 H    1.361  -2.076  -2.869
  28 H   -1.361   2.076   2.869
  29 H    2.197   0.461  -1.510
  30 H   -2.197  -0.461   1.510

 *******************************************************************************
 FINISHED BASIS SET HANDLING 
 *******************************************************************************

 INFORMATION **** SET_MPP **** PCRYSTAL CALCULATION
 INFORMATION **** READM2 **** NEW DEFAULT: FOCK/KS MATRIX MIXING SET TO 30 %
 INFORMATION **** READM2 **** NEW DEFAULT: FULL DIRECT SCF MODE
 INFORMATION **** READM2 **** NEW DEFAULT: COULOMB BIPOLAR BUFFER SET TO 32 Mb
 INFORMATION **** READM2 **** NEW DEFAULT: EXCHANGE BIPOLAR BUFFER SET TO 32 Mb

 *******************************************************************************
 NEW DEFAULT: DFT INTEGRATION GRID INCREASED TO XLGRID
 NEW DEFAULT: DIIS ACCELERATOR ACTIVE
 USE KEYWORD NODIIS TO TURN IT OFF
 *******************************************************************************

 INFORMATION **** RDDFTP **** HSE-3c calculation
 INFORMATION **** RDDFTP **** HSE screened hybrid functional combined with D3 and gCP

PLEASE CITE:
(1) HSE-3c Reference
 J. G. Brandenburg, E. Caldeweyer, and S. Grimme, 
 Phys. Chem. Chem. Phys. 18, 15519 (2016)
(2) DFT-D3 Reference
 S. Grimme, J. Antony, S. Ehrlich,
 and H. Krieg, J. Chem. Phys. 132, 154104 (2010)
(3) gCP Reference
 H. Kruse and S. Grimme J. Chem. Phys, 136, 154101 (2012)
 J. G. Brandenburg, M. Alessio, B. Civalleri, M. F. Peintinger
 T. Bredow, and S. Grimme, J. Phys. Chem. A, 117, 9282 (2013) 

 WARNING **** RDDFTP **** HSE3c-HJS ACTIVE
 RANGE SEPARATION - OMEGA:   0.110000000000000     
 WARNING **** RDDFTP **** HSE-3c has to be combined with def2-mSVP basis set
 WARNING **** RDDFTP **** Note: Harmonic frequencies are scaled by 0.95
 WARNING **** RDDFTP **** as recommended in original publication
 INFORMATION **** BIPOSIZE **** COULOMB BIPOLAR BUFFER SET TO    60000000
 INFORMATION **** EXCHSIZE **** EXCHANGE BIPOLAR BUFFER SIZE SET TO    40000000
 *******************************************************************************
 N. OF ATOMS PER CELL        30  COULOMB OVERLAP TOL         (T1) 10**   -6
 NUMBER OF SHELLS           110  COULOMB PENETRATION TOL     (T2) 10**   -6
 NUMBER OF AO               190  EXCHANGE OVERLAP TOL        (T3) 10**   -6
 N. OF ELECTRONS PER CELL   100  EXCHANGE PSEUDO OVP (F(G))  (T4) 10**   -6
 CORE ELECTRONS PER CELL     20  EXCHANGE PSEUDO OVP (P(G))  (T5) 10**  -12
 N. OF SYMMETRY OPERATORS     2  POLE ORDER IN MONO ZONE                  4
 *******************************************************************************
 TYPE OF CALCULATION :  RESTRICTED CLOSED SHELL
 KOHN-SHAM HAMILTONIAN

 (EXCHANGE)[CORRELATION] FUNCTIONAL:(HSE-3c)[PBEh-3c]

 RANGE-SEPARATED HYBRID FUNCTIONAL 
 OMEGA (SHORT-RANGE)[LONG-RANGE]:(    0.1100)[    0.0000]

 HYBRID EXCHANGE - PERCENTAGE OF FOCK EXCHANGE    42.0000

 CAPPA:IS1  2;IS2  2;IS3  2; K PTS MONK NET   8; SYMMOPS:K SPACE   2;G SPACE   2

 *******************************************************************************
 MAX NUMBER OF SCF CYCLES      50  CONVERGENCE ON DELTAP        10**-16
 WEIGHT OF F(I) IN F(I+1)      30% CONVERGENCE ON ENERGY        10**- 6
 S(K) EIGENV. THRESHOLD  10*10.**-4
 SHRINK. FACT.(MONKH.)    2  2  2  NUMBER OF K POINTS IN THE IBZ      8
 SHRINKING FACTOR(GILAT NET)    2  NUMBER OF K POINTS(GILAT NET)      8
 *******************************************************************************
 *** K POINTS COORDINATES (OBLIQUE COORDINATES IN UNITS OF IS =  2)
   1-R(  0  0  0)   2-R(  1  0  0)   3-R(  0  1  0)   4-R(  1  1  0)
   5-R(  0  0  1)   6-R(  1  0  1)   7-R(  0  1  1)   8-R(  1  1  1)

 DIRECT LATTICE VECTORS COMPON. (A.U.)     RECIP. LATTICE VECTORS COMPON. (A.U.) 
        X            Y            Z              X            Y            Z
   10.9829160    0.1278032    0.0000000      0.5720872    0.0000000   -0.0039129
    0.0000000   11.6988424    0.0000000     -0.0062497    0.5370775   -0.0086298
    0.0804527    0.1899396   11.7626413      0.0000000    0.0000000    0.5341645

 DISK SPACE FOR EIGENVECTORS (FTN 10)      288800 REALS

 SYMMETRY ADAPTION OF THE BLOCH FUNCTIONS ENABLED
 TTTTTTTTTTTTTTTTTTTTTTTTTTTTTT gordsh1     TELAPSE        0.11 TCPU        0.04

 MATRIX SIZE: P(G)  132038, F(G)   22901, P(G) IRR   33789, F(G) IRR   11644
 MAX G-VECTOR INDEX FOR 1- AND 2-ELECTRON INTEGRALS  73

 TTTTTTTTTTTTTTTTTTTTTTTTTTTTTT INPUT       TELAPSE        0.12 TCPU        0.05

 NEIGHBORS OF THE NON-EQUIVALENT ATOMS

 N = NUMBER OF NEIGHBORS AT DISTANCE R
    ATOM  N     R/ANG      R/AU   NEIGHBORS (ATOM LABELS AND CELL INDICES)
   1 O    1     0.9766     1.8456   11 H    1 0 1
   1 O    1     0.9771     1.8465   13 H    0 0 1
   1 O    1     1.7834     3.3701   19 H    0 0 0
   1 O    1     1.9630     3.7095   17 H    0 0 1
   1 O    1     2.7602     5.2160    5 O    0 0 0
   1 O    1     2.7896     5.2716    9 O    0 0 1

   3 O    1     0.9727     1.8382   17 H    0-1 0
   3 O    1     0.9788     1.8497   15 H    0-1 0
   3 O    1     1.7790     3.3618   27 H    0 0 0
   3 O    1     1.9801     3.7419   25 H    0-1 0
   3 O    1     2.7578     5.2116    9 O    0 0 0
   3 O    1     2.7648     5.2247    5 O    0-1 0

   5 O    1     0.9733     1.8393   21 H    1 0 0
   5 O    1     0.9795     1.8510   19 H    0 0 0
   5 O    1     1.8230     3.4450   15 H    0 0 0
   5 O    1     1.8663     3.5268   29 H    0 0 0
   5 O    1     2.7602     5.2160    1 O    0 0 0
   5 O    1     2.7648     5.2247    3 O    0 1 0

   7 O    1     0.9716     1.8361   25 H    0 0 0
   7 O    1     0.9805     1.8529   23 H    0 0 0
   7 O    1     1.8501     3.4961   11 H    0 0 0
   7 O    1     1.8740     3.5414   21 H    0 0 0
   7 O    1     2.7378     5.1736    9 O    0 0 0
   7 O    1     2.8058     5.3023    1 O   -1 0-1

   9 O    1     0.9749     1.8422   29 H    0 0 0
   9 O    1     0.9798     1.8515   27 H    0 0 0
   9 O    1     1.7848     3.3728   23 H    0 0 0
   9 O    1     1.8472     3.4908   13 H    0 0 0
   9 O    1     2.7378     5.1736    7 O    0 0 0
   9 O    1     2.7578     5.2116    3 O    0 0 0

  11 H    1     0.9766     1.8456    1 O   -1 0-1
  11 H    1     1.5458     2.9212   13 H   -1 0 0
  11 H    1     1.8501     3.4961    7 O    0 0 0
  11 H    1     2.3231     4.3901   17 H   -1 0 0
  11 H    1     2.4148     4.5634   19 H   -1 0-1
  11 H    1     2.4320     4.5958   25 H    0 0 0

  13 H    1     0.9771     1.8465    1 O    0 0-1
  13 H    1     1.5458     2.9212   11 H    1 0 0
  13 H    1     1.8472     3.4908    9 O    0 0 0
  13 H    1     2.1967     4.1511   29 H    0 0 0
  13 H    1     2.2138     4.1834   17 H    0 0 0
  13 H    1     2.3717     4.4820   19 H    0 0-1

  15 H    1     0.9788     1.8497    3 O    0 1 0
  15 H    1     1.5249     2.8817   17 H    0 0 0
  15 H    1     1.8230     3.4450    5 O    0 0 0
  15 H    1     2.2619     4.2743   21 H    1 0 0
  15 H    1     2.3353     4.4132   25 H    0 0 0
  15 H    1     2.4195     4.5722   27 H    0 1 0

  17 H    1     0.9727     1.8382    3 O    0 1 0
  17 H    1     1.5249     2.8817   15 H    0 0 0
  17 H    1     1.9630     3.7095    1 O    0 0-1
  17 H    1     2.2138     4.1834   13 H    0 0 0
  17 H    1     2.3231     4.3901   11 H    1 0 0
  17 H    1     2.3392     4.4205   25 H    0 0 0

  19 H    1     0.9795     1.8510    5 O    0 0 0
  19 H    1     1.5882     3.0012   21 H    1 0 0
  19 H    1     1.7834     3.3701    1 O    0 0 0
  19 H    1     2.3717     4.4820   13 H    0 0 1
  19 H    1     2.4148     4.5634   11 H    1 0 1
  19 H    1     2.4936     4.7122   15 H    0 0 0

  21 H    1     0.9733     1.8393    5 O   -1 0 0
  21 H    1     1.5882     3.0012   19 H   -1 0 0
  21 H    1     1.8740     3.5414    7 O    0 0 0
  21 H    1     2.2619     4.2743   15 H   -1 0 0
  21 H    1     2.3121     4.3692   29 H   -1 0 0
  21 H    1     2.4456     4.6216   25 H    0 0 0

  23 H    1     0.9805     1.8529    7 O    0 0 0
  23 H    1     1.5300     2.8912   25 H    0 0 0
  23 H    1     1.7848     3.3728    9 O    0 0 0
  23 H    1     2.2151     4.1860   29 H    0 0 0
  23 H    1     2.4491     4.6280   11 H    0 0 0
  23 H    1     2.4526     4.6347   27 H    0 0 0

  25 H    1     0.9716     1.8361    7 O    0 0 0
  25 H    1     1.5300     2.8912   23 H    0 0 0
  25 H    1     1.9801     3.7419    3 O    0 1 0
  25 H    1     2.3353     4.4132   15 H    0 0 0
  25 H    1     2.3392     4.4205   17 H    0 0 0
  25 H    1     2.4320     4.5958   11 H    0 0 0

  27 H    1     0.9798     1.8515    9 O    0 0 0
  27 H    1     1.5862     2.9976   29 H    0 0 0
  27 H    1     1.7790     3.3618    3 O    0 0 0
  27 H    1     2.3585     4.4569   17 H    0-1 0
  27 H    1     2.4195     4.5722   15 H    0-1 0
  27 H    1     2.4526     4.6347   23 H    0 0 0

  29 H    1     0.9749     1.8422    9 O    0 0 0
  29 H    1     1.5862     2.9976   27 H    0 0 0
  29 H    1     1.8663     3.5268    5 O    0 0 0
  29 H    1     2.1967     4.1511   13 H    0 0 0
  29 H    1     2.2151     4.1860   23 H    0 0 0
  29 H    1     2.3121     4.3692   21 H    1 0 0


 SYMMETRY ALLOWED INTERNAL DEGREE(S) OF FREEDOM:  45
 TTTTTTTTTTTTTTTTTTTTTTTTTTTTTT SYMM        TELAPSE        0.39 TCPU        0.29
 TTTTTTTTTTTTTTTTTTTTTTTTTTTTTT INT_SCREEN  TELAPSE        0.39 TCPU        0.30

 DFT PARAMETERS

     ATOM       ELECTRONS   NET CHARGE   R(ANGSTROM)
   1   8  O       8.0000      0.0000     0.74000000
  11   1  H       1.0000      0.0000     1.11000000

 SIZE OF GRID=     318405
 TTTTTTTTTTTTTTTTTTTTTTTTTTTTTT MAKE_GRID2  TELAPSE        6.49 TCPU        6.39
 BECKE WEIGHT FUNCTION
 RADSAFE =     2.00
 TOLERANCES - DENSITY:10**- 6; POTENTIAL:10**- 9; GRID WGT:10**-14

 RADIAL INTEGRATION  - INTERVALS (POINTS,UPPER LIMIT):            1( 75,  4.0*R)

 ANGULAR INTEGRATION - INTERVALS (ACCURACY LEVEL [N. POINTS] UPPER LIMIT):
  1(  4[  86]   0.2)  2(  8[ 194]   0.5)  3( 12[ 350]   0.9)  4( 16[ 974]   3.5)
  5( 12[ 350]9999.0)
 TTTTTTTTTTTTTTTTTTTTTTTTTTTTTT INT_CALC    TELAPSE        6.51 TCPU        6.41
 EEEEEEEEEE INT_CALC TERMINATION  DATE 25 03 2019 TIME 17:53:18.6

 *******************************************************************************
 !drive by JGB                                                                   
 CRYSTAL - SCF - TYPE OF CALCULATION :  RESTRICTED CLOSED SHELL
 *******************************************************************************

 CAPPA:IS1  2;IS2  2;IS3  2; K PTS MONK NET   8; SYMMOPS:K SPACE   2;G SPACE   2

 TTTTTTTTTTTTTTTTTTTTTTTTTTTTTT SDIK        TELAPSE        7.74 TCPU        6.51

 AAAAAAAAAAAAAAAAAAAAAAAAAAAAAAAAAAAAAAAAAAAAAAAAAAAAAAAAAAAAAAAAAAAAAAAAAAAAAAA
         ATOMIC WAVEFUNCTION(S)


 NUCLEAR CHARGE  8.0  SYMMETRY SPECIES            S    P
 N. ELECTRONS    8.0  NUMBER OF PRIMITIVE GTOS    8    4
                      NUMBER OF CONTRACTED GTOS   4    2
                      NUMBER OF CLOSED SHELLS     2    0
                      OPEN SHELL OCCUPATION       0    4

  ZNUC SCFIT  TOTAL HF ENERGY   KINETIC ENERGY   VIRIAL THEOREM ACCURACY
   8.0  12   -7.477373220E+01  7.477365593E+01 -2.000001020E+00  3.8E-06

 NUCLEAR CHARGE  1.0  SYMMETRY SPECIES            S
 N. ELECTRONS    1.0  NUMBER OF PRIMITIVE GTOS    4
                      NUMBER OF CONTRACTED GTOS   2
                      NUMBER OF CLOSED SHELLS     0
                      OPEN SHELL OCCUPATION       1

  ZNUC SCFIT  TOTAL HF ENERGY   KINETIC ENERGY   VIRIAL THEOREM ACCURACY
   1.0   1   -4.977266687E-01  5.190767460E-01 -1.958869132E+00  1.8E-16

 AAAAAAAAAAAAAAAAAAAAAAAAAAAAAAAAAAAAAAAAAAAAAAAAAAAAAAAAAAAAAAAAAAAAAAAAAAAAAAA

 CHARGE NORMALIZATION FACTOR   1.00000000
 TOTAL ATOMIC CHARGES:
   8.0000000   8.0000000   8.0000000   8.0000000   8.0000000   8.0000000
   8.0000000   8.0000000   8.0000000   8.0000000   1.0000000   1.0000000
   1.0000000   1.0000000   1.0000000   1.0000000   1.0000000   1.0000000
   1.0000000   1.0000000   1.0000000   1.0000000   1.0000000   1.0000000
   1.0000000   1.0000000   1.0000000   1.0000000   1.0000000   1.0000000
 TTTTTTTTTTTTTTTTTTTTTTTTTTTTTT MOQGAD      TELAPSE        7.74 TCPU        6.51
 TTTTTTTTTTTTTTTTTTTTTTTTTTTTTT SHELLXN     TELAPSE       18.92 TCPU       17.62
 TTTTTTTTTTTTTTTTTTTTTTTTTTTTTT MONMO3      TELAPSE       22.04 TCPU       20.74
 NUMERICALLY INTEGRATED DENSITY    100.0000368851
 TTTTTTTTTTTTTTTTTTTTTTTTTTTTTT NUMDFT      TELAPSE       22.69 TCPU       21.39
 CYC   0 ETOT(AU) -7.631009733744E+02 DETOT -7.63E+02 tst  0.00E+00 PX  1.00E+00
 TTTTTTTTTTTTTTTTTTTTTTTTTTTTTT DIIS        TELAPSE       22.69 TCPU       21.39
 TTTTTTTTTTTTTTTTTTTTTTTTTTTTTT FDIK        TELAPSE       22.75 TCPU       21.44
 INSULATING STATE
 TOP OF VALENCE BANDS -    BAND     50; K    8; EIG -4.1380939E-01 AU
 TOP OF VALENCE BANDS -    BAND     50; K    1; EIG -4.1724023E-01 AU
 BOTTOM OF VIRTUAL BANDS - BAND     51; K    1; EIG -1.0316147E-01 AU
 INDIRECT ENERGY BAND GAP:   8.4532 eV
 TTTTTTTTTTTTTTTTTTTTTTTTTTTTTT PDIG        TELAPSE       22.76 TCPU       21.44
 CHARGE NORMALIZATION FACTOR   1.00000000
 TOTAL ATOMIC CHARGES:
   9.0685070   9.0685070   9.0629441   9.0629441   9.0792697   9.0792697
   9.0688806   9.0688806   9.0727730   9.0727730   0.4653055   0.4653055
   0.4667583   0.4667583   0.4664254   0.4664254   0.4707251   0.4707251
   0.4586243   0.4586243   0.4642558   0.4642558   0.4637803   0.4637803
   0.4663442   0.4663442   0.4598536   0.4598536   0.4655531   0.4655531
 TTTTTTTTTTTTTTTTTTTTTTTTTTTTTT MOQGAD      TELAPSE       22.76 TCPU       21.44
 TTTTTTTTTTTTTTTTTTTTTTTTTTTTTT SHELLXN     TELAPSE       34.15 TCPU       32.83
 TTTTTTTTTTTTTTTTTTTTTTTTTTTTTT MONMO3      TELAPSE       37.45 TCPU       36.13
 NUMERICALLY INTEGRATED DENSITY    100.0000397831
 TTTTTTTTTTTTTTTTTTTTTTTTTTTTTT NUMDFT      TELAPSE       38.89 TCPU       37.57
 CYC   1 ETOT(AU) -7.626808674071E+02 DETOT  4.20E-01 tst  0.00E+00 PX  1.00E+00
 TTTTTTTTTTTTTTTTTTTTTTTTTTTTTT DIIS        TELAPSE       39.43 TCPU       38.11
 DIIS TEST: 0.10755E+01 AT SCF   CYCLE   1 - MIX   30 %
 TTTTTTTTTTTTTTTTTTTTTTTTTTTTTT FDIK        TELAPSE       39.84 TCPU       38.12
 INSULATING STATE
 TOP OF VALENCE BANDS -    BAND     50; K    8; EIG -3.1741164E-01 AU
 TOP OF VALENCE BANDS -    BAND     50; K    1; EIG -3.2178372E-01 AU
 BOTTOM OF VIRTUAL BANDS - BAND     51; K    1; EIG -4.2026792E-02 AU
 INDIRECT ENERGY BAND GAP:   7.4936 eV
 TTTTTTTTTTTTTTTTTTTTTTTTTTTTTT PDIG        TELAPSE       39.85 TCPU       38.12
 CHARGE NORMALIZATION FACTOR   1.00000000
 TOTAL ATOMIC CHARGES:
   8.8440411   8.8440411   8.8377283   8.8377283   8.8553993   8.8553993
   8.8482071   8.8482071   8.8549600   8.8549600   0.5778534   0.5778534
   0.5775631   0.5775631   0.5775562   0.5775562   0.5893454   0.5893454
   0.5633594   0.5633594   0.5821673   0.5821673   0.5682063   0.5682063
   0.5788759   0.5788759   0.5634451   0.5634451   0.5812922   0.5812922
 TTTTTTTTTTTTTTTTTTTTTTTTTTTTTT MOQGAD      TELAPSE       39.85 TCPU       38.12
 TTTTTTTTTTTTTTTTTTTTTTTTTTTTTT SHELLXN     TELAPSE       51.27 TCPU       49.51
 TTTTTTTTTTTTTTTTTTTTTTTTTTTTTT MONMO3      TELAPSE       54.95 TCPU       53.19
 NUMERICALLY INTEGRATED DENSITY    100.0000453099
 TTTTTTTTTTTTTTTTTTTTTTTTTTTTTT NUMDFT      TELAPSE       56.38 TCPU       54.62
 CYC   2 ETOT(AU) -7.628971790939E+02 DETOT -2.16E-01 tst  3.11E-03 PX  1.29E-01
 TTTTTTTTTTTTTTTTTTTTTTTTTTTTTT DIIS        TELAPSE       56.39 TCPU       54.63
 DIIS TEST: 0.24120E+00 AT SCF   CYCLE   2 - DIIS ACTIVE - HISTORY:     2 CYCLES
 TTTTTTTTTTTTTTTTTTTTTTTTTTTTTT FDIK        TELAPSE       56.40 TCPU       54.63
 INSULATING STATE
 TOP OF VALENCE BANDS -    BAND     50; K    8; EIG -3.6584296E-01 AU
 TOP OF VALENCE BANDS -    BAND     50; K    1; EIG -3.6906198E-01 AU
 BOTTOM OF VIRTUAL BANDS - BAND     51; K    1; EIG -4.6327784E-02 AU
 INDIRECT ENERGY BAND GAP:   8.6945 eV
 TTTTTTTTTTTTTTTTTTTTTTTTTTTTTT PDIG        TELAPSE       56.40 TCPU       54.64
 CHARGE NORMALIZATION FACTOR   1.00000000
 TOTAL ATOMIC CHARGES:
   8.9230928   8.9230928   8.9163980   8.9163980   8.9311585   8.9311585
   8.9230777   8.9230777   8.9298768   8.9298768   0.5384596   0.5384596
   0.5391512   0.5391512   0.5384072   0.5384072   0.5501601   0.5501601
   0.5258589   0.5258589   0.5428368   0.5428368   0.5313062   0.5313062
   0.5416899   0.5416899   0.5264371   0.5264371   0.5420893   0.5420893
 TTTTTTTTTTTTTTTTTTTTTTTTTTTTTT MOQGAD      TELAPSE       56.40 TCPU       54.64
 TTTTTTTTTTTTTTTTTTTTTTTTTTTTTT SHELLXN     TELAPSE       67.81 TCPU       66.04
 TTTTTTTTTTTTTTTTTTTTTTTTTTTTTT MONMO3      TELAPSE       71.08 TCPU       69.31
 NUMERICALLY INTEGRATED DENSITY    100.0000434567
 TTTTTTTTTTTTTTTTTTTTTTTTTTTTTT NUMDFT      TELAPSE       72.51 TCPU       70.74
 CYC   3 ETOT(AU) -7.629612271779E+02 DETOT -6.40E-02 tst  3.76E-04 PX  4.74E-02
 TTTTTTTTTTTTTTTTTTTTTTTTTTTTTT DIIS        TELAPSE       72.52 TCPU       70.74
 DIIS TEST: 0.14354E-02 AT SCF   CYCLE   3 - DIIS ACTIVE - HISTORY:     3 CYCLES
 TTTTTTTTTTTTTTTTTTTTTTTTTTTTTT FDIK        TELAPSE       72.54 TCPU       70.75
 INSULATING STATE
 TOP OF VALENCE BANDS -    BAND     50; K    8; EIG -3.6329906E-01 AU
 TOP OF VALENCE BANDS -    BAND     50; K    1; EIG -3.6673799E-01 AU
 BOTTOM OF VIRTUAL BANDS - BAND     51; K    1; EIG -4.3320118E-02 AU
 INDIRECT ENERGY BAND GAP:   8.7071 eV
 TTTTTTTTTTTTTTTTTTTTTTTTTTTTTT PDIG        TELAPSE       72.55 TCPU       70.75
 CHARGE NORMALIZATION FACTOR   1.00000000
 TOTAL ATOMIC CHARGES:
   8.9184870   8.9184870   8.9118995   8.9118995   8.9289241   8.9289241
   8.9203223   8.9203223   8.9283489   8.9283489   0.5402944   0.5402944
   0.5410364   0.5410364   0.5402715   0.5402715   0.5521209   0.5521209
   0.5274436   0.5274436   0.5439122   0.5439122   0.5327340   0.5327340
   0.5434095   0.5434095   0.5277743   0.5277743   0.5430214   0.5430214
 TTTTTTTTTTTTTTTTTTTTTTTTTTTTTT MOQGAD      TELAPSE       72.55 TCPU       70.75
 TTTTTTTTTTTTTTTTTTTTTTTTTTTTTT SHELLXN     TELAPSE       83.96 TCPU       82.16
 TTTTTTTTTTTTTTTTTTTTTTTTTTTTTT MONMO3      TELAPSE       87.22 TCPU       85.42
 NUMERICALLY INTEGRATED DENSITY    100.0000435776
 TTTTTTTTTTTTTTTTTTTTTTTTTTTTTT NUMDFT      TELAPSE       88.66 TCPU       86.86
 CYC   4 ETOT(AU) -7.629614256214E+02 DETOT -1.98E-04 tst  1.31E-06 PX  2.47E-03
 TTTTTTTTTTTTTTTTTTTTTTTTTTTTTT DIIS        TELAPSE       88.67 TCPU       86.86
 DIIS TEST: 0.35716E-04 AT SCF   CYCLE   4 - DIIS ACTIVE - HISTORY:     4 CYCLES
 TTTTTTTTTTTTTTTTTTTTTTTTTTTTTT FDIK        TELAPSE       88.67 TCPU       86.87
 INSULATING STATE
 TOP OF VALENCE BANDS -    BAND     50; K    8; EIG -3.6301725E-01 AU
 TOP OF VALENCE BANDS -    BAND     50; K    1; EIG -3.6625123E-01 AU
 BOTTOM OF VIRTUAL BANDS - BAND     51; K    1; EIG -4.2939583E-02 AU
 INDIRECT ENERGY BAND GAP:   8.7098 eV
 TTTTTTTTTTTTTTTTTTTTTTTTTTTTTT PDIG        TELAPSE       88.68 TCPU       86.87
 CHARGE NORMALIZATION FACTOR   1.00000000
 TOTAL ATOMIC CHARGES:
   8.9201013   8.9201013   8.9132884   8.9132884   8.9278873   8.9278873
   8.9198412   8.9198412   8.9265722   8.9265722   0.5399478   0.5399478
   0.5406751   0.5406751   0.5399692   0.5399692   0.5516434   0.5516434
   0.5274519   0.5274519   0.5444943   0.5444943   0.5328796   0.5328796
   0.5433986   0.5433986   0.5280225   0.5280225   0.5438272   0.5438272
 TTTTTTTTTTTTTTTTTTTTTTTTTTTTTT MOQGAD      TELAPSE       88.68 TCPU       86.87
 TTTTTTTTTTTTTTTTTTTTTTTTTTTTTT SHELLXN     TELAPSE      100.03 TCPU       98.20
 TTTTTTTTTTTTTTTTTTTTTTTTTTTTTT MONMO3      TELAPSE      103.11 TCPU      101.27
 NUMERICALLY INTEGRATED DENSITY    100.0000435605
 TTTTTTTTTTTTTTTTTTTTTTTTTTTTTT NUMDFT      TELAPSE      104.51 TCPU      102.68
 CYC   5 ETOT(AU) -7.629614287777E+02 DETOT -3.16E-06 tst  1.23E-07 PX  9.24E-04
 TTTTTTTTTTTTTTTTTTTTTTTTTTTTTT DIIS        TELAPSE      104.52 TCPU      102.68
 DIIS TEST: 0.19495E-04 AT SCF   CYCLE   5 - DIIS ACTIVE - HISTORY:     5 CYCLES
 TTTTTTTTTTTTTTTTTTTTTTTTTTTTTT FDIK        TELAPSE      104.53 TCPU      102.69
 INSULATING STATE
 TOP OF VALENCE BANDS -    BAND     50; K    8; EIG -3.6309181E-01 AU
 TOP OF VALENCE BANDS -    BAND     50; K    1; EIG -3.6645147E-01 AU
 BOTTOM OF VIRTUAL BANDS - BAND     51; K    1; EIG -4.2921559E-02 AU
 INDIRECT ENERGY BAND GAP:   8.7123 eV
 TTTTTTTTTTTTTTTTTTTTTTTTTTTTTT PDIG        TELAPSE      104.53 TCPU      102.69
 CHARGE NORMALIZATION FACTOR   1.00000000
 TOTAL ATOMIC CHARGES:
   8.9190288   8.9190288   8.9123362   8.9123362   8.9284611   8.9284611
   8.9200858   8.9200858   8.9276072   8.9276072   0.5402306   0.5402306
   0.5409457   0.5409457   0.5402067   0.5402067   0.5520116   0.5520116
   0.5273833   0.5273833   0.5442785   0.5442785   0.5327626   0.5327626
   0.5433879   0.5433879   0.5278078   0.5278078   0.5434662   0.5434662
 TTTTTTTTTTTTTTTTTTTTTTTTTTTTTT MOQGAD      TELAPSE      104.54 TCPU      102.70
 TTTTTTTTTTTTTTTTTTTTTTTTTTTTTT SHELLXN     TELAPSE      115.78 TCPU      113.94
 TTTTTTTTTTTTTTTTTTTTTTTTTTTTTT MONMO3      TELAPSE      118.79 TCPU      116.95
 NUMERICALLY INTEGRATED DENSITY    100.0000435770
 TTTTTTTTTTTTTTTTTTTTTTTTTTTTTT NUMDFT      TELAPSE      120.20 TCPU      118.35
 CYC   6 ETOT(AU) -7.629614336812E+02 DETOT -4.90E-06 tst  3.18E-08 PX  4.91E-04
 TTTTTTTTTTTTTTTTTTTTTTTTTTTTTT DIIS        TELAPSE      120.20 TCPU      118.36
 DIIS TEST: 0.94555E-06 AT SCF   CYCLE   6 - DIIS ACTIVE - HISTORY:     6 CYCLES
 TTTTTTTTTTTTTTTTTTTTTTTTTTTTTT FDIK        TELAPSE      120.21 TCPU      118.37
 INSULATING STATE
 TOP OF VALENCE BANDS -    BAND     50; K    8; EIG -3.6306787E-01 AU
 TOP OF VALENCE BANDS -    BAND     50; K    1; EIG -3.6639495E-01 AU
 BOTTOM OF VIRTUAL BANDS - BAND     51; K    1; EIG -4.2911105E-02 AU
 INDIRECT ENERGY BAND GAP:   8.7119 eV
 TTTTTTTTTTTTTTTTTTTTTTTTTTTTTT PDIG        TELAPSE      120.22 TCPU      118.37
 CHARGE NORMALIZATION FACTOR   1.00000000
 TOTAL ATOMIC CHARGES:
   8.9191296   8.9191296   8.9124213   8.9124213   8.9283386   8.9283386
   8.9200065   8.9200065   8.9274289   8.9274289   0.5402025   0.5402025
   0.5409327   0.5409327   0.5401902   0.5401902   0.5519878   0.5519878
   0.5274314   0.5274314   0.5443049   0.5443049   0.5328091   0.5328091
   0.5434281   0.5434281   0.5278727   0.5278727   0.5435157   0.5435157
 TTTTTTTTTTTTTTTTTTTTTTTTTTTTTT MOQGAD      TELAPSE      120.22 TCPU      118.37
 TTTTTTTTTTTTTTTTTTTTTTTTTTTTTT SHELLXN     TELAPSE      131.44 TCPU      129.59
 TTTTTTTTTTTTTTTTTTTTTTTTTTTTTT MONMO3      TELAPSE      134.46 TCPU      132.61
 NUMERICALLY INTEGRATED DENSITY    100.0000435765
 TTTTTTTTTTTTTTTTTTTTTTTTTTTTTT NUMDFT      TELAPSE      135.87 TCPU      134.02
 CYC   7 ETOT(AU) -7.629614337645E+02 DETOT -8.33E-08 tst  6.31E-10 PX  9.17E-05
 TTTTTTTTTTTTTTTTTTTTTTTTTTTTTT DIIS        TELAPSE      135.87 TCPU      134.02
 DIIS TEST: 0.16831E-07 AT SCF   CYCLE   7 - DIIS ACTIVE - HISTORY:     7 CYCLES
 TTTTTTTTTTTTTTTTTTTTTTTTTTTTTT FDIK        TELAPSE      135.89 TCPU      134.03
 INSULATING STATE
 TOP OF VALENCE BANDS -    BAND     50; K    8; EIG -3.6306801E-01 AU
 TOP OF VALENCE BANDS -    BAND     50; K    1; EIG -3.6640099E-01 AU
 BOTTOM OF VIRTUAL BANDS - BAND     51; K    1; EIG -4.2909623E-02 AU
 INDIRECT ENERGY BAND GAP:   8.7120 eV
 TTTTTTTTTTTTTTTTTTTTTTTTTTTTTT PDIG        TELAPSE      135.89 TCPU      134.03
 CHARGE NORMALIZATION FACTOR   1.00000000
 TOTAL ATOMIC CHARGES:
   8.9191119   8.9191119   8.9124073   8.9124073   8.9283415   8.9283415
   8.9200010   8.9200010   8.9274332   8.9274332   0.5402150   0.5402150
   0.5409379   0.5409379   0.5401980   0.5401980   0.5519935   0.5519935
   0.5274236   0.5274236   0.5443161   0.5443161   0.5328069   0.5328069
   0.5434246   0.5434246   0.5278657   0.5278657   0.5435237   0.5435237
 TTTTTTTTTTTTTTTTTTTTTTTTTTTTTT MOQGAD      TELAPSE      135.90 TCPU      134.03
 TTTTTTTTTTTTTTTTTTTTTTTTTTTTTT SHELLXN     TELAPSE      147.10 TCPU      145.24
 +++ ENERGIES IN A.U. +++
 ::: EXT EL-POLE                                  -9.1746092353322E+02
 ::: EXT EL-SPHEROPOLE                             1.1083904044231E+01
 ::: BIELET ZONE E-E                               1.0989358308437E+03
 ::: TOTAL E-E                                     1.9255881135472E+02
 ::: TOTAL E-N + N-E                              -1.4886664603525E+03
 ::: TOTAL N-N                                    -1.6769030542782E+02
 ::: KINETIC ENERGY                                7.5801920427105E+02
 ::: PSEUDO TOTAL   ENERGY                        -7.0577875015458E+02
 ::: VIRIAL COEFFICIENT                            1.0356882956138E+00
 TTTTTTTTTTTTTTTTTTTTTTTTTTTTTT MONMO3      TELAPSE      150.15 TCPU      148.29
 NUMERICALLY INTEGRATED DENSITY    100.0000435766
 TTTTTTTTTTTTTTTTTTTTTTTTTTTTTT NUMDFT      TELAPSE      151.55 TCPU      149.69
 CYC   8 ETOT(AU) -7.629614337601E+02 DETOT  4.38E-09 tst  2.22E-11 PX  9.17E-05

 == SCF ENDED - CONVERGENCE ON ENERGY      E(AU) -7.6296143376012E+02 CYCLES   8


 ENERGY EXPRESSION=HARTREE+FOCK EXCH*0.00000+(HSE-3c     EXCH)*1.00000+PBEh-3c    CORR


 TOTAL ENERGY(DFT)(AU)(  8) -7.6296143376012E+02 DE 4.4E-09 tester 2.2E-11
 TTTTTTTTTTTTTTTTTTTTTTTTTTTTTT EDFT        TELAPSE      151.55 TCPU      149.69
 
 INFORMATION **** DFTD3 ENERGY **** CALCULATE DFTD3 ENERGY

           DFT-D V3(BJ)
 DF                                         hse3c     
 parameters
 s6       :    1.0000
 s8       :    0.0000
 a1       :    0.4411
 a2       :    4.5182
 k1 k3    :   16.0000   -4.0000
 Cutoff   :   50.2022
 CN-Cutoff:   21.1671
 
 Edisp /kcal,au:   -22.2265 -0.03542016

 E6    /kcal :   -24.0885
 E8    /kcal :     0.0000
 E6(ABC) "   :   1.862021
 
 INFORMATION **** DFTD3 ENERGY **** NORMAL TERMINATION OF DFTD3 MODULE

 GCP ENERGY CALCULATION
  level           hse3c               basis:hse3c
  Nbf            190
  Atoms           30

  Parameters: 
  sigma     1.0000
  eta       1.4086
  alpha     0.2908
  beta      1.9526

  dmp_scal      4.0000
  dmp_exp       6.0000
 cutoffs: 
   distance [bohr] 60.0
   noise    [a.u.] 2.2E-16
 SR-damping   T
 ** gCP correction **
  Egcp:        0.1309909835 / (a.u.) ||      82.1981 / (kcal/mol)
 INFORMATION **** GCP **** NORMAL TERMINATION OF GCP MODULE

 *******************************************************************************

 DFT-D3-GCP DISPERSION AND COUNTERPOISE CORRECTION

 D3 DISPERSION ENERGY (AU)      -3.5420157915836E-02
 GCP ENERGY (AU)                 1.3099098349850E-01
 TOTAL ENERGY + DISP + GCP (AU) -7.6286586293454E+02

 *******************************************************************************

 EIGENVECTORS IN FORTRAN UNIT  8
 TTTTTTTTTTTTTTTTTTTTTTTTTTTTTT END         TELAPSE      152.64 TCPU      150.74
 EEEEEEEEEE TERMINATION  DATE 25 03 2019 TIME 17:55:44.7
NODE    0 CPU TIME =       150.739
NODE    1 CPU TIME =       151.991
NODE    2 CPU TIME =       151.953
NODE    3 CPU TIME =       152.182
NODE    4 CPU TIME =       151.957
NODE    5 CPU TIME =       151.749
NODE    6 CPU TIME =       151.564
NODE    7 CPU TIME =       150.922
    TOTAL CPU TIME =      1213.058
