 PROCESS            0  OF            8  WORKING
 PROCESS            2  OF            8  WORKING
 PROCESS            3  OF            8  WORKING
 PROCESS            6  OF            8  WORKING
 PROCESS            4  OF            8  WORKING
 PROCESS            1  OF            8  WORKING
 PROCESS            5  OF            8  WORKING
 PROCESS            7  OF            8  WORKING

         
 *******************************************************************************
 *                                                                             *
 *                               CRYSTAL17                                     *
 *                      public : 1.0.1 - Feb 1st, 2017                         *
 *                       HTTP://WWW.CRYSTAL.UNITO.IT                           *
 *                                                                             *
 *                              MAIN AUTHORS                                   *
 *                                                                             *
 *  R. DOVESI(1,11), V.R. SAUNDERS(2), C. ROETTI(1,11), R. ORLANDO(1,11),      *
 *  C.M. ZICOVICH-WILSON(1,3), F. PASCALE(4), B. CIVALLERI(1,11),              *
 *  K. DOLL(5), N.M. HARRISON(2,6), I.J. BUSH(7), Ph. D'ARCO(8),               *
 *  M. LLUNELL(9), M. CAUSA'(10), Y. NOEL(8), L. MASCHIO(1,11), A. ERBA(1,11)  *
 *  M. RE'RAT(14), S. CASASSA(1,11)                                            *
 *                                                                             *
 *        CONTRIBUTIONS TO THE CODE HAVE ALSO BEEN GIVEN BY                    *
 *                                                                             *
 *  M. FERRABONE(1,11), M. DE LA PIERRE(1,11), M. FERRERO(1,11),               *
 *  J. BAIMA(1,11), E. ALBANESE(1,11), M.F. PEINTINGER(12), R. BAST(13),       *
 *  B. KIRTMAN(15), V. LACIVITA(1,11), R. DEMICHELIS(1,16)                     *
 *  G. BRANDEBURG(17), S. SALUSTRO(1,11), G. SANSONE(1,11)                     *
 *  M.T. RUGGIERO(18)                                                          *
 *                                                                             *
 * (1) THEORETICAL CHEMISTRY GROUP - UNIVERSITA' DI TORINO - TORINO (ITALY)    *

 * (2) COMPUTATIONAL SCIENCE & ENGINEERING DEPARTMENT - STFC DARESBURY (UK)    *
 * (3) UNIVERSIDAD AUTONOMA DEL ESTADO DE MORELOS - CUERNAVACA (MEXICO)        *
 * (4) UNIVERSITE' DE LORRAINE - NANCY (FRANCE)                                *
 * (5) UNIVERSITAET STUTTGART- STUTTGART (GERMANY)                             *
 * (6) IMPERIAL COLLEGE - LONDON (UK)                                          *
 * (7) OXFORD E-RESEARCH CENTRE - OXFORD (UK)                                  *
 * (8) UPMC - SORBONNE UNIVERSITES - PARIS (FRANCE)                            *
 * (9) UNIVERSIDAD DE BARCELONA - BARCELONA (SPAIN)                            *
 *(10) UNIVERSITA' DI NAPOLI "FEDERICO II" - NAPOLI (ITALY)                    *
 *(11) NIS - NANOSTRUCTURED INTERFACES AND SURFACES - TORINO (ITALY)           *
 *(12) MPI FUER CHEMISCHE ENERGIEKONVERSION - MUELHEIM AN DER RUHR (GERMANY)   *
 *(13) UNIVERSITY OF TROMSO - TROMSO (NORWAY)                                  *
 *(14) UNIVERSITE' DE PAU ET DES PAYS DE L'ADOUR - PAU (FRANCE)                *
 *(15) UNIVERSITY OF CALIFORNIA SANTA BARBARA - SANTA BARBARA (USA)            *
 *(16) CURTIN UNIVERSITY - PERTH (AUSTRALIA)                                   *
 *(17) UNIVERSITY COLLEGE LONDON - LONDON (UK)                                 *
 *(18) CAMBRIDGE UNIVERSITY - CAMBRIDGE (UK)                                   *
 *                                                                             *
 *******************************************************************************
 EEEEEEEEEE STARTING  DATE 25 03 2019 TIME 17:52:40.8
 !drive by JGB                                                                   

 CRYSTAL CALCULATION
 (INPUT ACCORDING TO THE INTERNATIONAL TABLES FOR X-RAY CRYSTALLOGRAPHY)
 CRYSTAL FAMILY                       :  TRICLINIC   
 CRYSTAL CLASS  (GROTH - 1921)        :  TRICLINIC PINAKOIDAL                 

 SPACE GROUP (CENTROSYMMETRIC)        :  P -1            

 LATTICE PARAMETERS  (ANGSTROMS AND DEGREES) - CONVENTIONAL CELL
        A           B           C        ALPHA        BETA       GAMMA
     6.55657     6.55829     7.72638    89.50566    64.99737    88.78997


 NUMBER OF IRREDUCIBLE ATOMS IN THE CONVENTIONAL CELL:   18

 INPUT COORDINATES

 ATOM AT. N.              COORDINATES
   1   8     2.263835155332E-01  6.478315002746E-01  1.325890417370E-01
   2   8     7.732327952187E-01  1.488541335917E-01  3.611267573841E-01
   3   8     1.952828944769E-01  5.482848628179E-02  1.061180408752E-01
   4   8     6.313507301477E-01  6.450339271094E-01  1.464232672758E-01
   5   8     3.616919055084E-01  1.302972309326E-01  3.585269291137E-01
   6   8     1.909261193770E-01  4.457247419752E-01  6.110656787398E-01
   7   1     2.641444687582E-01  5.492777628305E-01  2.809923281425E-02
   8   1     8.033583286488E-02  6.081474427784E-01  2.342155997484E-01
   9   1     9.214107646557E-01  1.116790954365E-01  2.587114514590E-01
  10   1     7.836002483606E-01  2.920508039359E-01  3.926247769259E-01
  11   1     2.086445867434E-01  9.056257619885E-01  9.062658022183E-02
  12   1     2.700324273933E-01  8.480123504742E-02  1.903186970341E-01
  13   1     4.719154118326E-01  6.453873322153E-01  1.694562461938E-01
  14   1     6.942482949984E-01  7.684609533365E-01  7.020185625553E-02
  15   1     3.039449458992E-01  2.168921468979E-02  4.556857561653E-01
  16   1     5.224680730214E-01  1.359679469247E-01  3.297451178626E-01
  17   1     2.706748158487E-01  4.077828076321E-01  6.905728012175E-01
  18   1     2.472537255145E-01  3.491225548842E-01  5.039721366990E-01

 *******************************************************************************

 << INFORMATION >>: FROM NOW ON, ALL COORDINATES REFER TO THE PRIMITIVE CELL

 *******************************************************************************

 LATTICE PARAMETERS  (ANGSTROMS AND DEGREES) - PRIMITIVE CELL
       A          B          C        ALPHA      BETA     GAMMA        VOLUME
    6.55657    6.55829    7.72638    89.50566  64.99737  88.78997    301.032350

 COORDINATES OF THE EQUIVALENT ATOMS (FRACTIONAL UNITS)

 N. ATOM EQUIV AT. N.          X                  Y                  Z

   1   1   1    8 O     2.26383515533E-01 -3.52168499725E-01  1.32589041737E-01
   2   1   2    8 O    -2.26383515533E-01  3.52168499725E-01 -1.32589041737E-01

   3   2   1    8 O    -2.26767204781E-01  1.48854133592E-01  3.61126757384E-01
   4   2   2    8 O     2.26767204781E-01 -1.48854133592E-01 -3.61126757384E-01

   5   3   1    8 O     1.95282894477E-01  5.48284862818E-02  1.06118040875E-01
   6   3   2    8 O    -1.95282894477E-01 -5.48284862818E-02 -1.06118040875E-01

   7   4   1    8 O    -3.68649269852E-01 -3.54966072891E-01  1.46423267276E-01
   8   4   2    8 O     3.68649269852E-01  3.54966072891E-01 -1.46423267276E-01

   9   5   1    8 O     3.61691905508E-01  1.30297230933E-01  3.58526929114E-01
  10   5   2    8 O    -3.61691905508E-01 -1.30297230933E-01 -3.58526929114E-01

  11   6   1    8 O     1.90926119377E-01  4.45724741975E-01 -3.88934321260E-01
  12   6   2    8 O    -1.90926119377E-01 -4.45724741975E-01  3.88934321260E-01

  13   7   1    1 H     2.64144468758E-01 -4.50722237169E-01  2.80992328142E-02
  14   7   2    1 H    -2.64144468758E-01  4.50722237169E-01 -2.80992328142E-02

  15   8   1    1 H     8.03358328649E-02 -3.91852557222E-01  2.34215599748E-01
  16   8   2    1 H    -8.03358328649E-02  3.91852557222E-01 -2.34215599748E-01

  17   9   1    1 H    -7.85892353443E-02  1.11679095436E-01  2.58711451459E-01
  18   9   2    1 H     7.85892353443E-02 -1.11679095436E-01 -2.58711451459E-01

  19  10   1    1 H    -2.16399751639E-01  2.92050803936E-01  3.92624776926E-01
  20  10   2    1 H     2.16399751639E-01 -2.92050803936E-01 -3.92624776926E-01

  21  11   1    1 H     2.08644586743E-01 -9.43742380115E-02  9.06265802218E-02
  22  11   2    1 H    -2.08644586743E-01  9.43742380115E-02 -9.06265802218E-02

  23  12   1    1 H     2.70032427393E-01  8.48012350474E-02  1.90318697034E-01
  24  12   2    1 H    -2.70032427393E-01 -8.48012350474E-02 -1.90318697034E-01

  25  13   1    1 H     4.71915411833E-01 -3.54612667785E-01  1.69456246194E-01
  26  13   2    1 H    -4.71915411833E-01  3.54612667785E-01 -1.69456246194E-01

  27  14   1    1 H    -3.05751705002E-01 -2.31539046664E-01  7.02018562555E-02
  28  14   2    1 H     3.05751705002E-01  2.31539046664E-01 -7.02018562555E-02

  29  15   1    1 H     3.03944945899E-01  2.16892146898E-02  4.55685756165E-01
  30  15   2    1 H    -3.03944945899E-01 -2.16892146898E-02 -4.55685756165E-01

  31  16   1    1 H    -4.77531926979E-01  1.35967946925E-01  3.29745117863E-01
  32  16   2    1 H     4.77531926979E-01 -1.35967946925E-01 -3.29745117863E-01

  33  17   1    1 H     2.70674815849E-01  4.07782807632E-01 -3.09427198783E-01
  34  17   2    1 H    -2.70674815849E-01 -4.07782807632E-01  3.09427198783E-01

  35  18   1    1 H     2.47253725515E-01  3.49122554884E-01 -4.96027863301E-01
  36  18   2    1 H    -2.47253725515E-01 -3.49122554884E-01  4.96027863301E-01

 NUMBER OF SYMMETRY OPERATORS         :    2
 *******************************************************************************
 * GEOMETRY EDITING - INPUT COORDINATES ARE GIVEN IN ANGSTROM         
 *******************************************************************************

 GEOMETRY NOW FULLY CONSISTENT WITH THE GROUP

 GCALCO - MAX INDICES DIRECT LATTICE VECTOR    16    14    14
 NO.OF VECTORS CREATED 6999 STARS 3500 RMAX   150.21702 BOHR

 GEOMETRY FOR WAVE FUNCTION - DIMENSIONALITY OF THE SYSTEM    3
 (NON PERIODIC DIRECTION: LATTICE PARAMETER FORMALLY SET TO 500)
 *******************************************************************************
 LATTICE PARAMETERS (ANGSTROMS AND DEGREES) - BOHR = 0.5291772083 ANGSTROM
 PRIMITIVE CELL - CENTRING CODE 1/0 VOLUME=   301.032350 - DENSITY  1.192 g/cm^3
         A              B              C           ALPHA      BETA       GAMMA 
     6.55657095     6.55829122     7.72638206    89.505658  64.997368  88.789968
 *******************************************************************************
 ATOMS IN THE ASYMMETRIC UNIT   18 - ATOMS IN THE UNIT CELL:   36
     ATOM                 X/A                 Y/B                 Z/C    
 *******************************************************************************
      1 T   8 O     2.263835155332E-01 -3.521684997254E-01  1.325890417370E-01
      2 F   8 O    -2.263835155332E-01  3.521684997254E-01 -1.325890417370E-01
      3 T   8 O    -2.267672047813E-01  1.488541335917E-01  3.611267573841E-01
      4 F   8 O     2.267672047813E-01 -1.488541335917E-01 -3.611267573841E-01
      5 T   8 O     1.952828944769E-01  5.482848628179E-02  1.061180408752E-01
      6 F   8 O    -1.952828944769E-01 -5.482848628179E-02 -1.061180408752E-01
      7 T   8 O    -3.686492698523E-01 -3.549660728906E-01  1.464232672758E-01
      8 F   8 O     3.686492698523E-01  3.549660728906E-01 -1.464232672758E-01
      9 T   8 O     3.616919055084E-01  1.302972309326E-01  3.585269291137E-01
     10 F   8 O    -3.616919055084E-01 -1.302972309326E-01 -3.585269291137E-01
     11 T   8 O     1.909261193770E-01  4.457247419752E-01 -3.889343212602E-01
     12 F   8 O    -1.909261193770E-01 -4.457247419752E-01  3.889343212602E-01
     13 T   1 H     2.641444687582E-01 -4.507222371695E-01  2.809923281425E-02
     14 F   1 H    -2.641444687582E-01  4.507222371695E-01 -2.809923281425E-02
     15 T   1 H     8.033583286488E-02 -3.918525572216E-01  2.342155997484E-01
     16 F   1 H    -8.033583286488E-02  3.918525572216E-01 -2.342155997484E-01
     17 T   1 H    -7.858923534433E-02  1.116790954365E-01  2.587114514590E-01
     18 F   1 H     7.858923534433E-02 -1.116790954365E-01 -2.587114514590E-01
     19 T   1 H    -2.163997516394E-01  2.920508039359E-01  3.926247769259E-01
     20 F   1 H     2.163997516394E-01 -2.920508039359E-01 -3.926247769259E-01
     21 T   1 H     2.086445867434E-01 -9.437423801149E-02  9.062658022183E-02
     22 F   1 H    -2.086445867434E-01  9.437423801149E-02 -9.062658022183E-02
     23 T   1 H     2.700324273933E-01  8.480123504742E-02  1.903186970341E-01
     24 F   1 H    -2.700324273933E-01 -8.480123504742E-02 -1.903186970341E-01
     25 T   1 H     4.719154118326E-01 -3.546126677847E-01  1.694562461938E-01
     26 F   1 H    -4.719154118326E-01  3.546126677847E-01 -1.694562461938E-01
     27 T   1 H    -3.057517050016E-01 -2.315390466635E-01  7.020185625553E-02
     28 F   1 H     3.057517050016E-01  2.315390466635E-01 -7.020185625553E-02
     29 T   1 H     3.039449458992E-01  2.168921468979E-02  4.556857561653E-01
     30 F   1 H    -3.039449458992E-01 -2.168921468979E-02 -4.556857561653E-01
     31 T   1 H    -4.775319269786E-01  1.359679469247E-01  3.297451178626E-01
     32 F   1 H     4.775319269786E-01 -1.359679469247E-01 -3.297451178626E-01
     33 T   1 H     2.706748158487E-01  4.077828076321E-01 -3.094271987825E-01
     34 F   1 H    -2.706748158487E-01 -4.077828076321E-01  3.094271987825E-01
     35 T   1 H     2.472537255145E-01  3.491225548842E-01 -4.960278633010E-01
     36 F   1 H    -2.472537255145E-01 -3.491225548842E-01  4.960278633010E-01

 T = ATOM BELONGING TO THE ASYMMETRIC UNIT

 ****    2 SYMMOPS - TRANSLATORS IN FRACTIONAL UNITS
 **** MATRICES AND TRANSLATORS IN THE CRYSTALLOGRAPHIC REFERENCE FRAME
   V INV                    ROTATION MATRICES                   TRANSLATORS
   1   1  1.00  0.00  0.00  0.00  1.00  0.00  0.00  0.00  1.00  0.00  0.00  0.00
   2   2 -1.00  0.00  0.00  0.00 -1.00  0.00  0.00  0.00 -1.00  0.00  0.00  0.00

 DIRECT LATTICE VECTORS CARTESIAN COMPONENTS (ANGSTROM)
          X                    Y                    Z
   0.655510884328E+01   0.138458207331E+00   0.000000000000E+00
   0.000000000000E+00   0.655829122000E+01   0.000000000000E+00
   0.326495218144E+01   0.666615901837E-01   0.700232984244E+01


 CARTESIAN COORDINATES - PRIMITIVE CELL
 *******************************************************************************
 *      ATOM          X(ANGSTROM)         Y(ANGSTROM)         Z(ANGSTROM)
 *******************************************************************************
    1     8 O     1.916865465698E+00 -2.269440327616E+00  9.284322037360E-01
    2     8 O    -1.916865465698E+00  2.269440327616E+00 -9.284322037360E-01
    3     8 O    -3.074221151284E-01  9.689042606447E-01  2.528728670136E+00
    4     8 O     3.074221151284E-01 -9.689042606447E-01 -2.528728670136E+00
    5     8 O     1.626570957572E+00  3.936936970314E-01  7.430735244420E-01
    6     8 O    -1.626570957572E+00 -3.936936970314E-01 -7.430735244420E-01
    7     8 O    -1.938471122970E+00 -2.369252588438E+00  1.025304014073E+00
    8     8 O     1.938471122970E+00  2.369252588438E+00 -1.025304014073E+00
    9     8 O    -3.013605755621E+00  7.900481663456E-01  2.510523815052E+00
   10     8 O     3.013605755621E+00 -7.900481663456E-01 -2.510523815052E+00
   11     8 O    -1.831046709586E-02  2.923700969722E+00 -2.723446404511E+00
   12     8 O     1.831046709586E-02 -2.923700969722E+00  2.723446404511E+00
   13     1 H     1.823238394533E+00 -2.917521581524E+00  1.967600964850E-01
   14     1 H    -1.823238394533E+00  2.917521581524E+00 -1.967600964850E-01
   15     1 H     1.291312861771E+00 -2.543146845833E+00  1.640054883684E+00
   16     1 H    -1.291312861771E+00  2.543146845833E+00 -1.640054883684E+00
   17     1 H     3.295195262134E-01  7.387888231704E-01  1.811582917133E+00
   18     1 H    -3.295195262134E-01 -7.387888231704E-01 -1.811582917133E+00
   19     1 H    -1.366228037415E-01  1.911564893543E+00  2.749288192351E+00
   20     1 H     1.366228037415E-01 -1.911564893543E+00 -2.749288192351E+00
   21     1 H     1.663579426455E+00 -5.840038691446E-01  6.345972072059E-01
   22     1 H    -1.663579426455E+00  5.840038691446E-01 -6.345972072059E-01
   23     1 H     2.391473397828E+00  6.062263480608E-01  1.332674291817E+00
   24     1 H    -2.391473397828E+00 -6.062263480608E-01 -1.332674291817E+00
   25     1 H    -2.908385413225E+00 -2.387474568192E+00  1.186588529711E+00
   26     1 H     2.908385413225E+00  2.387474568192E+00 -1.186588529711E+00
   27     1 H    -1.775030001580E+00 -1.556154562412E+00  4.915765530530E-01
   28     1 H     1.775030001580E+00  1.556154562412E+00 -4.915765530530E-01
   29     1 H     2.152322249345E-01  1.480430055517E-01 -3.811467873271E+00
   30     1 H    -2.152322249345E-01 -1.480430055517E-01  3.811467873271E+00
   31     1 H    -2.053671715599E+00  8.475805118768E-01  2.308984079209E+00
   32     1 H     2.053671715599E+00 -8.475805118768E-01 -2.308984079209E+00
   33     1 H     7.640378713594E-01  2.691208647616E+00 -2.166711308098E+00
   34     1 H    -7.640378713594E-01 -2.691208647616E+00  2.166711308098E+00
   35     1 H     1.267828312109E-03  2.290815687849E+00 -3.473350709876E+00
   36     1 H    -1.267828312109E-03 -2.290815687849E+00  3.473350709876E+00

 *******************************************************************************
 STARTING BASIS SET HANDLING 
 *******************************************************************************

 Loading internal basis set: DEF2-MSVP           

 Please cite in your publication:
 Fully Optimized Contracted Gaussian Basis Sets for Atoms Li to Kr. A. Schäfer, 
 H. Horn and R. Ahlrichs; J. Chem. Phys. 97, 2571 (1992).                       
                                                                                
                    
 S. Grimme, J. G. Brandenburg, C. Bannwarth, and A. Hansen, J. Chem. Phys., 143,
  054107 (2015).                                                                
                                                                                
                    

 *******************************************************************************
 LOCAL ATOMIC FUNCTIONS BASIS SET
 *******************************************************************************
   ATOM   X(AU)   Y(AU)   Z(AU)  N. TYPE  EXPONENT  S COEF   P COEF   D/F/G COEF
 *******************************************************************************
   1 O    3.622  -4.289   1.754
                                  1 S  
                                         6.773E+03 1.727E-03 0.000E+00 0.000E+00
                                         1.017E+03 1.325E-02 0.000E+00 0.000E+00
                                         2.313E+02 6.603E-02 0.000E+00 0.000E+00
                                         6.501E+01 2.353E-01 0.000E+00 0.000E+00
                                         2.050E+01 5.498E-01 0.000E+00 0.000E+00
                                  2 S  
                                         6.716E+00 1.000E+00 0.000E+00 0.000E+00
                                  3 S  
                                         1.147E+00 1.000E+00 0.000E+00 0.000E+00
                                  4 S  
                                         3.342E-01 1.000E+00 0.000E+00 0.000E+00
                           5-     7 P  
                                         1.769E+01 0.000E+00 4.359E-02 0.000E+00
                                         3.854E+00 0.000E+00 2.318E-01 0.000E+00
                                         1.047E+00 0.000E+00 5.146E-01 0.000E+00
                           8-    10 P  
                                         2.759E-01 0.000E+00 1.000E+00 0.000E+00
                          11-    15 D  
                                         8.000E-01 0.000E+00 0.000E+00 1.000E+00
   2 O   -3.622   4.289  -1.754
   3 O   -0.581   1.831   4.779
   4 O    0.581  -1.831  -4.779
   5 O    3.074   0.744   1.404
   6 O   -3.074  -0.744  -1.404
   7 O   -3.663  -4.477   1.938
   8 O    3.663   4.477  -1.938
   9 O   -5.695   1.493   4.744
  10 O    5.695  -1.493  -4.744
  11 O   -0.035   5.525  -5.147
  12 O    0.035  -5.525   5.147
  13 H    3.445  -5.513   0.372
                                181 S  
                                         1.874E+01 1.968E-02 0.000E+00 0.000E+00
                                         2.826E+00 1.380E-01 0.000E+00 0.000E+00
                                         6.401E-01 4.783E-01 0.000E+00 0.000E+00
                                182 S  
                                         1.756E-01 1.000E+00 0.000E+00 0.000E+00
  14 H   -3.445   5.513  -0.372
  15 H    2.440  -4.806   3.099
  16 H   -2.440   4.806  -3.099
  17 H    0.623   1.396   3.423
  18 H   -0.623  -1.396  -3.423
  19 H   -0.258   3.612   5.195
  20 H    0.258  -3.612  -5.195
  21 H    3.144  -1.104   1.199
  22 H   -3.144   1.104  -1.199
  23 H    4.519   1.146   2.518
  24 H   -4.519  -1.146  -2.518
  25 H   -5.496  -4.512   2.242
  26 H    5.496   4.512  -2.242
  27 H   -3.354  -2.941   0.929
  28 H    3.354   2.941  -0.929
  29 H    0.407   0.280  -7.203
  30 H   -0.407  -0.280   7.203
  31 H   -3.881   1.602   4.363
  32 H    3.881  -1.602  -4.363
  33 H    1.444   5.086  -4.094
  34 H   -1.444  -5.086   4.094
  35 H    0.002   4.329  -6.564
  36 H   -0.002  -4.329   6.564

 *******************************************************************************
 FINISHED BASIS SET HANDLING 
 *******************************************************************************

 INFORMATION **** SET_MPP **** PCRYSTAL CALCULATION
 INFORMATION **** READM2 **** NEW DEFAULT: FOCK/KS MATRIX MIXING SET TO 30 %
 INFORMATION **** READM2 **** NEW DEFAULT: FULL DIRECT SCF MODE
 INFORMATION **** READM2 **** NEW DEFAULT: COULOMB BIPOLAR BUFFER SET TO 32 Mb
 INFORMATION **** READM2 **** NEW DEFAULT: EXCHANGE BIPOLAR BUFFER SET TO 32 Mb

 *******************************************************************************
 NEW DEFAULT: DFT INTEGRATION GRID INCREASED TO XLGRID
 NEW DEFAULT: DIIS ACCELERATOR ACTIVE
 USE KEYWORD NODIIS TO TURN IT OFF
 *******************************************************************************

 INFORMATION **** RDDFTP **** HSE-3c calculation
 INFORMATION **** RDDFTP **** HSE screened hybrid functional combined with D3 and gCP

PLEASE CITE:
(1) HSE-3c Reference
 J. G. Brandenburg, E. Caldeweyer, and S. Grimme, 
 Phys. Chem. Chem. Phys. 18, 15519 (2016)
(2) DFT-D3 Reference
 S. Grimme, J. Antony, S. Ehrlich,
 and H. Krieg, J. Chem. Phys. 132, 154104 (2010)
(3) gCP Reference
 H. Kruse and S. Grimme J. Chem. Phys, 136, 154101 (2012)
 J. G. Brandenburg, M. Alessio, B. Civalleri, M. F. Peintinger
 T. Bredow, and S. Grimme, J. Phys. Chem. A, 117, 9282 (2013) 

 WARNING **** RDDFTP **** HSE3c-HJS ACTIVE
 RANGE SEPARATION - OMEGA:   0.110000000000000     
 WARNING **** RDDFTP **** HSE-3c has to be combined with def2-mSVP basis set
 WARNING **** RDDFTP **** Note: Harmonic frequencies are scaled by 0.95
 WARNING **** RDDFTP **** as recommended in original publication
 INFORMATION **** BIPOSIZE **** COULOMB BIPOLAR BUFFER SET TO    60000000
 INFORMATION **** EXCHSIZE **** EXCHANGE BIPOLAR BUFFER SIZE SET TO    40000000
 *******************************************************************************
 N. OF ATOMS PER CELL        36  COULOMB OVERLAP TOL         (T1) 10**   -6
 NUMBER OF SHELLS           132  COULOMB PENETRATION TOL     (T2) 10**   -6
 NUMBER OF AO               228  EXCHANGE OVERLAP TOL        (T3) 10**   -6
 N. OF ELECTRONS PER CELL   120  EXCHANGE PSEUDO OVP (F(G))  (T4) 10**   -6
 CORE ELECTRONS PER CELL     24  EXCHANGE PSEUDO OVP (P(G))  (T5) 10**  -12
 N. OF SYMMETRY OPERATORS     2  POLE ORDER IN MONO ZONE                  4
 *******************************************************************************
 TYPE OF CALCULATION :  RESTRICTED CLOSED SHELL
 KOHN-SHAM HAMILTONIAN

 (EXCHANGE)[CORRELATION] FUNCTIONAL:(HSE-3c)[PBEh-3c]

 RANGE-SEPARATED HYBRID FUNCTIONAL 
 OMEGA (SHORT-RANGE)[LONG-RANGE]:(    0.1100)[    0.0000]

 HYBRID EXCHANGE - PERCENTAGE OF FOCK EXCHANGE    42.0000

 CAPPA:IS1  2;IS2  2;IS3  2; K PTS MONK NET   8; SYMMOPS:K SPACE   2;G SPACE   2

 *******************************************************************************
 MAX NUMBER OF SCF CYCLES      50  CONVERGENCE ON DELTAP        10**-16
 WEIGHT OF F(I) IN F(I+1)      30% CONVERGENCE ON ENERGY        10**- 6
 S(K) EIGENV. THRESHOLD  10*10.**-4
 SHRINK. FACT.(MONKH.)    2  2  2  NUMBER OF K POINTS IN THE IBZ      8
 SHRINKING FACTOR(GILAT NET)    2  NUMBER OF K POINTS(GILAT NET)      8
 *******************************************************************************
 *** K POINTS COORDINATES (OBLIQUE COORDINATES IN UNITS OF IS =  2)
   1-R(  0  0  0)   2-R(  1  0  0)   3-R(  0  1  0)   4-R(  1  1  0)
   5-R(  0  0  1)   6-R(  1  0  1)   7-R(  0  1  1)   8-R(  1  1  1)

 DIRECT LATTICE VECTORS COMPON. (A.U.)     RECIP. LATTICE VECTORS COMPON. (A.U.) 
        X            Y            Z              X            Y            Z
   12.3873605    0.2616481    0.0000000      0.5072255    0.0000000   -0.2365023
    0.0000000   12.3933743    0.0000000     -0.0107085    0.5069794    0.0001666
    6.1698655    0.1259721   13.2324857      0.0000000    0.0000000    0.4748303

 DISK SPACE FOR EIGENVECTORS (FTN 10)      415872 REALS

 SYMMETRY ADAPTION OF THE BLOCH FUNCTIONS ENABLED
 TTTTTTTTTTTTTTTTTTTTTTTTTTTTTT gordsh1     TELAPSE        0.32 TCPU        0.05

 MATRIX SIZE: P(G)  138640, F(G)   25050, P(G) IRR   35376, F(G) IRR   12709
 MAX G-VECTOR INDEX FOR 1- AND 2-ELECTRON INTEGRALS  63

 TTTTTTTTTTTTTTTTTTTTTTTTTTTTTT INPUT       TELAPSE        0.33 TCPU        0.05

 NEIGHBORS OF THE NON-EQUIVALENT ATOMS

 N = NUMBER OF NEIGHBORS AT DISTANCE R
    ATOM  N     R/ANG      R/AU   NEIGHBORS (ATOM LABELS AND CELL INDICES)
   1 O    1     0.9819     1.8555   13 H    0 0 0
   1 O    1     0.9862     1.8637   15 H    0 0 0
   1 O    1     1.7295     3.2683   21 H    0 0 0
   1 O    1     1.7491     3.3054   25 H    1 0 0
   1 O    1     2.6853     5.0745    5 O    0 0 0
   1 O    1     2.6934     5.0899   12 O    0 0 0

   3 O    1     0.9831     1.8577   19 H    0 0 0
   3 O    1     0.9864     1.8640   17 H    0 0 0
   3 O    1     1.7034     3.2189   30 H    0 0 0
   3 O    1     1.7642     3.3339   31 H    0 0 0
   3 O    1     2.6844     5.0729   10 O   -1 0 1
   3 O    1     2.6926     5.0882   12 O    0 1 0

   5 O    1     0.9844     1.8602   21 H    0 0 0
   5 O    1     0.9889     1.8687   23 H    0 0 0
   5 O    1     1.7023     3.2168   28 H    0 0 0
   5 O    1     1.7156     3.2419   17 H    0 0 0
   5 O    1     2.6602     5.0271    9 O    1 0 0
   5 O    1     2.6697     5.0450    8 O    0 0 0

   7 O    1     0.9834     1.8584   25 H    0 0 0
   7 O    1     0.9863     1.8638   27 H    0 0 0
   7 O    1     1.6691     3.1541   34 H    0 0 0
   7 O    1     1.7673     3.3398   14 H    0-1 0
   7 O    1     2.6495     5.0069   12 O    0 0 0
   7 O    1     2.6697     5.0450    6 O    0 0 0

   9 O    1     0.9825     1.8567   31 H    0 0 0
   9 O    1     0.9880     1.8670   29 H   -1 0 1
   9 O    1     1.6774     3.1699   23 H   -1 0 0
   9 O    1     1.7762     3.3566   35 H   -1 0 1
   9 O    1     2.6602     5.0271    5 O   -1 0 0
   9 O    1     2.6844     5.0729    4 O   -1 0 1

  11 O    1     0.9815     1.8547   35 H    0 0 0
  11 O    1     0.9880     1.8670   33 H    0 0 0
  11 O    1     1.7144     3.2397   16 H    0 0 0
  11 O    1     1.7302     3.2695   20 H    0 1 0
  11 O    1     2.6495     5.0069    8 O    0 0 0
  11 O    1     2.6926     5.0882    4 O    0 1 0

  13 H    1     0.9819     1.8555    1 O    0 0 0
  13 H    1     1.5831     2.9916   15 H    0 0 0
  13 H    1     1.7673     3.3398    8 O    0-1 0
  13 H    1     2.1592     4.0802   26 H    0-1 0
  13 H    1     2.1799     4.1193   25 H    1 0 0
  13 H    1     2.1958     4.1496   28 H    0-1 0

  15 H    1     0.9862     1.8637    1 O    0 0 0
  15 H    1     1.5831     2.9916   13 H    0 0 0
  15 H    1     1.7144     3.2397   12 O    0 0 0
  15 H    1     2.1269     4.0193   34 H    0 0 0
  15 H    1     2.2333     4.2204   21 H    0 0 0
  15 H    1     2.2573     4.2657   36 H    0 0 0

  17 H    1     0.9864     1.8640    3 O    0 0 0
  17 H    1     1.5723     2.9711   19 H    0 0 0
  17 H    1     1.7156     3.2419    5 O    0 0 0
  17 H    1     2.1210     4.0081   23 H    0 0 0
  17 H    1     2.2169     4.1894   21 H    0 0 0
  17 H    1     2.2545     4.2604   30 H    0 0 0

  19 H    1     0.9831     1.8577    3 O    0 0 0
  19 H    1     1.5723     2.9711   17 H    0 0 0
  19 H    1     1.7302     3.2695   12 O    0 1 0
  19 H    1     2.1347     4.0341   34 H    0 1 0
  19 H    1     2.2363     4.2260   31 H    0 0 0
  19 H    1     2.3187     4.3817   30 H    0 0 0

  21 H    1     0.9844     1.8602    5 O    0 0 0
  21 H    1     1.5601     2.9481   23 H    0 0 0
  21 H    1     1.7295     3.2683    1 O    0 0 0
  21 H    1     2.2169     4.1894   17 H    0 0 0
  21 H    1     2.2333     4.2204   15 H    0 0 0
  21 H    1     2.3796     4.4968   13 H    0 0 0

  23 H    1     0.9889     1.8687    5 O    0 0 0
  23 H    1     1.5601     2.9481   21 H    0 0 0
  23 H    1     1.6774     3.1699    9 O    1 0 0
  23 H    1     2.1210     4.0081   17 H    0 0 0
  23 H    1     2.1472     4.0575   28 H    0 0 0
  23 H    1     2.1889     4.1365   29 H    0 0 1

  25 H    1     0.9834     1.8584    7 O    0 0 0
  25 H    1     1.5680     2.9631   27 H    0 0 0
  25 H    1     1.7491     3.3054    1 O   -1 0 0
  25 H    1     2.1592     4.0802   14 H    0-1 0
  25 H    1     2.1799     4.1193   13 H   -1 0 0
  25 H    1     2.3772     4.4923   34 H    0 0 0

  27 H    1     0.9863     1.8638    7 O    0 0 0
  27 H    1     1.5680     2.9631   25 H    0 0 0
  27 H    1     1.7023     3.2168    6 O    0 0 0
  27 H    1     2.1472     4.0575   24 H    0 0 0
  27 H    1     2.1958     4.1496   14 H    0-1 0
  27 H    1     2.2620     4.2745   34 H    0 0 0

  29 H    1     0.9880     1.8670    9 O    1 0-1
  29 H    1     1.5542     2.9371   31 H    1 0-1
  29 H    1     1.7034     3.2189    4 O    0 0 0
  29 H    1     2.1798     4.1192   35 H    0 0 0
  29 H    1     2.1889     4.1365   23 H    0 0-1
  29 H    1     2.2545     4.2604   18 H    0 0 0

  31 H    1     0.9825     1.8567    9 O    0 0 0
  31 H    1     1.5542     2.9371   29 H   -1 0 1
  31 H    1     1.7642     3.3339    3 O    0 0 0
  31 H    1     2.2125     4.1809   35 H   -1 0 1
  31 H    1     2.2363     4.2260   19 H    0 0 0
  31 H    1     2.3557     4.4517   23 H   -1 0 0

  33 H    1     0.9880     1.8670   11 O    0 0 0
  33 H    1     1.5651     2.9576   35 H    0 0 0
  33 H    1     1.6691     3.1541    8 O    0 0 0
  33 H    1     2.1269     4.0193   16 H    0 0 0
  33 H    1     2.1347     4.0341   20 H    0 1 0
  33 H    1     2.2620     4.2745   28 H    0 0 0

  35 H    1     0.9815     1.8547   11 O    0 0 0
  35 H    1     1.5651     2.9576   33 H    0 0 0
  35 H    1     1.7762     3.3566    9 O    1 0-1
  35 H    1     2.1798     4.1192   29 H    0 0 0
  35 H    1     2.2125     4.1809   31 H    1 0-1
  35 H    1     2.2573     4.2657   16 H    0 0 0


 SYMMETRY ALLOWED INTERNAL DEGREE(S) OF FREEDOM:  54
 TTTTTTTTTTTTTTTTTTTTTTTTTTTTTT SYMM        TELAPSE        0.40 TCPU        0.10
 TTTTTTTTTTTTTTTTTTTTTTTTTTTTTT INT_SCREEN  TELAPSE        0.40 TCPU        0.11

 DFT PARAMETERS

     ATOM       ELECTRONS   NET CHARGE   R(ANGSTROM)
   1   8  O       8.0000      0.0000     0.74000000
  13   1  H       1.0000      0.0000     1.11000000

 SIZE OF GRID=     398514
 TTTTTTTTTTTTTTTTTTTTTTTTTTTTTT MAKE_GRID2  TELAPSE        7.77 TCPU        7.47
 BECKE WEIGHT FUNCTION
 RADSAFE =     2.00
 TOLERANCES - DENSITY:10**- 6; POTENTIAL:10**- 9; GRID WGT:10**-14

 RADIAL INTEGRATION  - INTERVALS (POINTS,UPPER LIMIT):            1( 75,  4.0*R)

 ANGULAR INTEGRATION - INTERVALS (ACCURACY LEVEL [N. POINTS] UPPER LIMIT):
  1(  4[  86]   0.2)  2(  8[ 194]   0.5)  3( 12[ 350]   0.9)  4( 16[ 974]   3.5)
  5( 12[ 350]9999.0)
 TTTTTTTTTTTTTTTTTTTTTTTTTTTTTT INT_CALC    TELAPSE        7.79 TCPU        7.49
 EEEEEEEEEE INT_CALC TERMINATION  DATE 25 03 2019 TIME 17:52:48.4

 *******************************************************************************
 !drive by JGB                                                                   
 CRYSTAL - SCF - TYPE OF CALCULATION :  RESTRICTED CLOSED SHELL
 *******************************************************************************

 CAPPA:IS1  2;IS2  2;IS3  2; K PTS MONK NET   8; SYMMOPS:K SPACE   2;G SPACE   2

 TTTTTTTTTTTTTTTTTTTTTTTTTTTTTT SDIK        TELAPSE        8.20 TCPU        7.63

 AAAAAAAAAAAAAAAAAAAAAAAAAAAAAAAAAAAAAAAAAAAAAAAAAAAAAAAAAAAAAAAAAAAAAAAAAAAAAAA
         ATOMIC WAVEFUNCTION(S)


 NUCLEAR CHARGE  8.0  SYMMETRY SPECIES            S    P
 N. ELECTRONS    8.0  NUMBER OF PRIMITIVE GTOS    8    4
                      NUMBER OF CONTRACTED GTOS   4    2
                      NUMBER OF CLOSED SHELLS     2    0
                      OPEN SHELL OCCUPATION       0    4

  ZNUC SCFIT  TOTAL HF ENERGY   KINETIC ENERGY   VIRIAL THEOREM ACCURACY
   8.0  12   -7.477373220E+01  7.477365593E+01 -2.000001020E+00  3.8E-06

 NUCLEAR CHARGE  1.0  SYMMETRY SPECIES            S
 N. ELECTRONS    1.0  NUMBER OF PRIMITIVE GTOS    4
                      NUMBER OF CONTRACTED GTOS   2
                      NUMBER OF CLOSED SHELLS     0
                      OPEN SHELL OCCUPATION       1

  ZNUC SCFIT  TOTAL HF ENERGY   KINETIC ENERGY   VIRIAL THEOREM ACCURACY
   1.0   1   -4.977266687E-01  5.190767460E-01 -1.958869132E+00  1.8E-16

 AAAAAAAAAAAAAAAAAAAAAAAAAAAAAAAAAAAAAAAAAAAAAAAAAAAAAAAAAAAAAAAAAAAAAAAAAAAAAAA

 CHARGE NORMALIZATION FACTOR   1.00000000
 TOTAL ATOMIC CHARGES:
   8.0000000   8.0000000   8.0000000   8.0000000   8.0000000   8.0000000
   8.0000000   8.0000000   8.0000000   8.0000000   8.0000000   8.0000000
   1.0000000   1.0000000   1.0000000   1.0000000   1.0000000   1.0000000
   1.0000000   1.0000000   1.0000000   1.0000000   1.0000000   1.0000000
   1.0000000   1.0000000   1.0000000   1.0000000   1.0000000   1.0000000
   1.0000000   1.0000000   1.0000000   1.0000000   1.0000000   1.0000000
 TTTTTTTTTTTTTTTTTTTTTTTTTTTTTT MOQGAD      TELAPSE        8.20 TCPU        7.63
 TTTTTTTTTTTTTTTTTTTTTTTTTTTTTT SHELLXN     TELAPSE       20.19 TCPU       19.60
 TTTTTTTTTTTTTTTTTTTTTTTTTTTTTT MONMO3      TELAPSE       21.18 TCPU       20.59
 NUMERICALLY INTEGRATED DENSITY    120.0000107784
 TTTTTTTTTTTTTTTTTTTTTTTTTTTTTT NUMDFT      TELAPSE       21.93 TCPU       21.34
 CYC   0 ETOT(AU) -9.159548877373E+02 DETOT -9.16E+02 tst  0.00E+00 PX  1.00E+00
 TTTTTTTTTTTTTTTTTTTTTTTTTTTTTT DIIS        TELAPSE       21.93 TCPU       21.34
 TTTTTTTTTTTTTTTTTTTTTTTTTTTTTT FDIK        TELAPSE       22.34 TCPU       21.74
 INSULATING STATE
 TOP OF VALENCE BANDS -    BAND     60; K    8; EIG -4.1101963E-01 AU
 TOP OF VALENCE BANDS -    BAND     60; K    1; EIG -4.1715839E-01 AU
 BOTTOM OF VIRTUAL BANDS - BAND     61; K    1; EIG -8.1528254E-02 AU
 INDIRECT ENERGY BAND GAP:   8.9659 eV
 TTTTTTTTTTTTTTTTTTTTTTTTTTTTTT PDIG        TELAPSE       22.35 TCPU       21.74
 CHARGE NORMALIZATION FACTOR   1.00000000
 TOTAL ATOMIC CHARGES:
   9.0783573   9.0783573   9.0770968   9.0770968   9.0709827   9.0709827
   9.0680327   9.0680327   9.0673274   9.0673274   9.0712844   9.0712844
   0.4691551   0.4691551   0.4649813   0.4649813   0.4652776   0.4652776
   0.4615981   0.4615981   0.4615533   0.4615533   0.4643316   0.4643316
   0.4625418   0.4625418   0.4607945   0.4607945   0.4663480   0.4663480
   0.4633354   0.4633354   0.4637885   0.4637885   0.4632135   0.4632135
 TTTTTTTTTTTTTTTTTTTTTTTTTTTTTT MOQGAD      TELAPSE       22.35 TCPU       21.75
 TTTTTTTTTTTTTTTTTTTTTTTTTTTTTT SHELLXN     TELAPSE       34.74 TCPU       34.14
 TTTTTTTTTTTTTTTTTTTTTTTTTTTTTT MONMO3      TELAPSE       35.72 TCPU       35.12
 NUMERICALLY INTEGRATED DENSITY    120.0000155224
 TTTTTTTTTTTTTTTTTTTTTTTTTTTTTT NUMDFT      TELAPSE       37.37 TCPU       36.77
 CYC   1 ETOT(AU) -9.152677579863E+02 DETOT  6.87E-01 tst  0.00E+00 PX  1.00E+00
 TTTTTTTTTTTTTTTTTTTTTTTTTTTTTT DIIS        TELAPSE       37.49 TCPU       36.89
 DIIS TEST: 0.11805E+01 AT SCF   CYCLE   1 - MIX   30 %
 TTTTTTTTTTTTTTTTTTTTTTTTTTTTTT FDIK        TELAPSE       37.51 TCPU       36.90
 INSULATING STATE
 TOP OF VALENCE BANDS -    BAND     60; K    8; EIG -3.1366668E-01 AU
 TOP OF VALENCE BANDS -    BAND     60; K    1; EIG -3.2090238E-01 AU
 BOTTOM OF VIRTUAL BANDS - BAND     61; K    1; EIG -2.1860397E-02 AU
 INDIRECT ENERGY BAND GAP:   7.9405 eV
 TTTTTTTTTTTTTTTTTTTTTTTTTTTTTT PDIG        TELAPSE       37.51 TCPU       36.90
 CHARGE NORMALIZATION FACTOR   1.00000000
 TOTAL ATOMIC CHARGES:
   8.8679850   8.8679850   8.8693723   8.8693723   8.8657951   8.8657951
   8.8643353   8.8643353   8.8624578   8.8624578   8.8627013   8.8627013
   0.5778683   0.5778683   0.5686186   0.5686186   0.5683148   0.5683148
   0.5639517   0.5639517   0.5650790   0.5650790   0.5648233   0.5648233
   0.5672012   0.5672012   0.5606082   0.5606082   0.5699556   0.5699556
   0.5685913   0.5685913   0.5631827   0.5631827   0.5691583   0.5691583
 TTTTTTTTTTTTTTTTTTTTTTTTTTTTTT MOQGAD      TELAPSE       37.52 TCPU       36.91
 TTTTTTTTTTTTTTTTTTTTTTTTTTTTTT SHELLXN     TELAPSE       49.90 TCPU       49.28
 TTTTTTTTTTTTTTTTTTTTTTTTTTTTTT MONMO3      TELAPSE       50.87 TCPU       50.26
 NUMERICALLY INTEGRATED DENSITY    120.0000152652
 TTTTTTTTTTTTTTTTTTTTTTTTTTTTTT NUMDFT      TELAPSE       52.48 TCPU       51.87
 CYC   2 ETOT(AU) -9.155129129677E+02 DETOT -2.45E-01 tst  2.46E-03 PX  1.18E-01
 TTTTTTTTTTTTTTTTTTTTTTTTTTTTTT DIIS        TELAPSE       52.61 TCPU       51.99
 DIIS TEST: 0.25030E+00 AT SCF   CYCLE   2 - DIIS ACTIVE - HISTORY:     2 CYCLES
 TTTTTTTTTTTTTTTTTTTTTTTTTTTTTT FDIK        TELAPSE       52.62 TCPU       52.00
 INSULATING STATE
 TOP OF VALENCE BANDS -    BAND     60; K    8; EIG -3.5800262E-01 AU
 TOP OF VALENCE BANDS -    BAND     60; K    1; EIG -3.6485777E-01 AU
 BOTTOM OF VIRTUAL BANDS - BAND     61; K    1; EIG -2.3569991E-02 AU
 INDIRECT ENERGY BAND GAP:   9.1004 eV
 TTTTTTTTTTTTTTTTTTTTTTTTTTTTTT PDIG        TELAPSE       52.62 TCPU       52.00
 CHARGE NORMALIZATION FACTOR   1.00000000
 TOTAL ATOMIC CHARGES:
   8.9402410   8.9402410   8.9412014   8.9412014   8.9371294   8.9371294
   8.9349878   8.9349878   8.9334017   8.9334017   8.9356773   8.9356773
   0.5413624   0.5413624   0.5325123   0.5325123   0.5324888   0.5324888
   0.5284864   0.5284864   0.5291275   0.5291275   0.5295237   0.5295237
   0.5311046   0.5311046   0.5258365   0.5258365   0.5340903   0.5340903
   0.5325825   0.5325825   0.5274548   0.5274548   0.5327916   0.5327916
 TTTTTTTTTTTTTTTTTTTTTTTTTTTTTT MOQGAD      TELAPSE       52.63 TCPU       52.01
 TTTTTTTTTTTTTTTTTTTTTTTTTTTTTT SHELLXN     TELAPSE       65.00 TCPU       64.38
 TTTTTTTTTTTTTTTTTTTTTTTTTTTTTT MONMO3      TELAPSE       65.98 TCPU       65.36
 NUMERICALLY INTEGRATED DENSITY    120.0000154707
 TTTTTTTTTTTTTTTTTTTTTTTTTTTTTT NUMDFT      TELAPSE       67.56 TCPU       66.94
 CYC   3 ETOT(AU) -9.155784932336E+02 DETOT -6.56E-02 tst  2.25E-04 PX  4.05E-02
 TTTTTTTTTTTTTTTTTTTTTTTTTTTTTT DIIS        TELAPSE       68.47 TCPU       67.85
 DIIS TEST: 0.87732E-03 AT SCF   CYCLE   3 - DIIS ACTIVE - HISTORY:     3 CYCLES
 TTTTTTTTTTTTTTTTTTTTTTTTTTTTTT FDIK        TELAPSE       68.52 TCPU       67.86
 INSULATING STATE
 TOP OF VALENCE BANDS -    BAND     60; K    8; EIG -3.5609741E-01 AU
 TOP OF VALENCE BANDS -    BAND     60; K    1; EIG -3.6283667E-01 AU
 BOTTOM OF VIRTUAL BANDS - BAND     61; K    1; EIG -2.1415587E-02 AU
 INDIRECT ENERGY BAND GAP:   9.1072 eV
 TTTTTTTTTTTTTTTTTTTTTTTTTTTTTT PDIG        TELAPSE       68.53 TCPU       67.86
 CHARGE NORMALIZATION FACTOR   1.00000000
 TOTAL ATOMIC CHARGES:
   8.9380663   8.9380663   8.9390747   8.9390747   8.9355117   8.9355117
   8.9339915   8.9339915   8.9317411   8.9317411   8.9328915   8.9328915
   0.5422378   0.5422378   0.5335609   0.5335609   0.5334166   0.5334166
   0.5296816   0.5296816   0.5300920   0.5300920   0.5302550   0.5302550
   0.5319389   0.5319389   0.5264741   0.5264741   0.5349013   0.5349013
   0.5335884   0.5335884   0.5285795   0.5285795   0.5339970   0.5339970
 TTTTTTTTTTTTTTTTTTTTTTTTTTTTTT MOQGAD      TELAPSE       68.53 TCPU       67.86
 TTTTTTTTTTTTTTTTTTTTTTTTTTTTTT SHELLXN     TELAPSE       80.94 TCPU       80.25
 TTTTTTTTTTTTTTTTTTTTTTTTTTTTTT MONMO3      TELAPSE       81.91 TCPU       81.22
 NUMERICALLY INTEGRATED DENSITY    120.0000154945
 TTTTTTTTTTTTTTTTTTTTTTTTTTTTTT NUMDFT      TELAPSE       83.51 TCPU       82.82
 CYC   4 ETOT(AU) -9.155786372472E+02 DETOT -1.44E-04 tst  7.54E-07 PX  1.50E-03
 TTTTTTTTTTTTTTTTTTTTTTTTTTTTTT DIIS        TELAPSE       83.52 TCPU       82.82
 DIIS TEST: 0.21516E-04 AT SCF   CYCLE   4 - DIIS ACTIVE - HISTORY:     4 CYCLES
 TTTTTTTTTTTTTTTTTTTTTTTTTTTTTT FDIK        TELAPSE       83.54 TCPU       82.83
 INSULATING STATE
 TOP OF VALENCE BANDS -    BAND     60; K    8; EIG -3.5599370E-01 AU
 TOP OF VALENCE BANDS -    BAND     60; K    1; EIG -3.6282878E-01 AU
 BOTTOM OF VIRTUAL BANDS - BAND     61; K    1; EIG -2.1178202E-02 AU
 INDIRECT ENERGY BAND GAP:   9.1108 eV
 TTTTTTTTTTTTTTTTTTTTTTTTTTTTTT PDIG        TELAPSE       83.54 TCPU       82.84
 CHARGE NORMALIZATION FACTOR   1.00000000
 TOTAL ATOMIC CHARGES:
   8.9385230   8.9385230   8.9393364   8.9393364   8.9353257   8.9353257
   8.9329756   8.9329756   8.9314500   8.9314500   8.9339911   8.9339911
   0.5422035   0.5422035   0.5333359   0.5333359   0.5333181   0.5333181
   0.5294487   0.5294487   0.5300901   0.5300901   0.5303778   0.5303778
   0.5321668   0.5321668   0.5267497   0.5267497   0.5350690   0.5350690
   0.5336059   0.5336059   0.5283717   0.5283717   0.5336610   0.5336610
 TTTTTTTTTTTTTTTTTTTTTTTTTTTTTT MOQGAD      TELAPSE       83.55 TCPU       82.84
 TTTTTTTTTTTTTTTTTTTTTTTTTTTTTT SHELLXN     TELAPSE       95.94 TCPU       95.23
 TTTTTTTTTTTTTTTTTTTTTTTTTTTTTT MONMO3      TELAPSE       96.91 TCPU       96.20
 NUMERICALLY INTEGRATED DENSITY    120.0000154937
 TTTTTTTTTTTTTTTTTTTTTTTTTTTTTT NUMDFT      TELAPSE       98.50 TCPU       97.79
 CYC   5 ETOT(AU) -9.155786414900E+02 DETOT -4.24E-06 tst  4.15E-08 PX  5.72E-04
 TTTTTTTTTTTTTTTTTTTTTTTTTTTTTT DIIS        TELAPSE       98.51 TCPU       97.80
 DIIS TEST: 0.54664E-05 AT SCF   CYCLE   5 - DIIS ACTIVE - HISTORY:     5 CYCLES
 TTTTTTTTTTTTTTTTTTTTTTTTTTTTTT FDIK        TELAPSE       98.54 TCPU       97.81
 INSULATING STATE
 TOP OF VALENCE BANDS -    BAND     60; K    8; EIG -3.5601671E-01 AU
 TOP OF VALENCE BANDS -    BAND     60; K    1; EIG -3.6277313E-01 AU
 BOTTOM OF VIRTUAL BANDS - BAND     61; K    1; EIG -2.1169630E-02 AU
 INDIRECT ENERGY BAND GAP:   9.1117 eV
 TTTTTTTTTTTTTTTTTTTTTTTTTTTTTT PDIG        TELAPSE       98.54 TCPU       97.81
 CHARGE NORMALIZATION FACTOR   1.00000000
 TOTAL ATOMIC CHARGES:
   8.9381611   8.9381611   8.9391797   8.9391797   8.9354437   8.9354437
   8.9337772   8.9337772   8.9316913   8.9316913   8.9331570   8.9331570
   0.5422391   0.5422391   0.5334945   0.5334945   0.5333603   0.5333603
   0.5295684   0.5295684   0.5300812   0.5300812   0.5303140   0.5303140
   0.5319848   0.5319848   0.5265316   0.5265316   0.5350099   0.5350099
   0.5335812   0.5335812   0.5285474   0.5285474   0.5338776   0.5338776
 TTTTTTTTTTTTTTTTTTTTTTTTTTTTTT MOQGAD      TELAPSE       98.55 TCPU       97.82
 TTTTTTTTTTTTTTTTTTTTTTTTTTTTTT SHELLXN     TELAPSE      110.93 TCPU      110.20
 TTTTTTTTTTTTTTTTTTTTTTTTTTTTTT MONMO3      TELAPSE      111.90 TCPU      111.17
 NUMERICALLY INTEGRATED DENSITY    120.0000154970
 TTTTTTTTTTTTTTTTTTTTTTTTTTTTTT NUMDFT      TELAPSE      113.49 TCPU      112.76
 CYC   6 ETOT(AU) -9.155786426401E+02 DETOT -1.15E-06 tst  1.01E-08 PX  3.81E-04
 TTTTTTTTTTTTTTTTTTTTTTTTTTTTTT DIIS        TELAPSE      113.50 TCPU      112.77
 DIIS TEST: 0.10508E-05 AT SCF   CYCLE   6 - DIIS ACTIVE - HISTORY:     6 CYCLES
 TTTTTTTTTTTTTTTTTTTTTTTTTTTTTT FDIK        TELAPSE      113.51 TCPU      112.77
 INSULATING STATE
 TOP OF VALENCE BANDS -    BAND     60; K    8; EIG -3.5600208E-01 AU
 TOP OF VALENCE BANDS -    BAND     60; K    1; EIG -3.6278315E-01 AU
 BOTTOM OF VIRTUAL BANDS - BAND     61; K    1; EIG -2.1164558E-02 AU
 INDIRECT ENERGY BAND GAP:   9.1114 eV
 TTTTTTTTTTTTTTTTTTTTTTTTTTTTTT PDIG        TELAPSE      113.51 TCPU      112.78
 CHARGE NORMALIZATION FACTOR   1.00000000
 TOTAL ATOMIC CHARGES:
   8.9382517   8.9382517   8.9391780   8.9391780   8.9354010   8.9354010
   8.9334866   8.9334866   8.9315626   8.9315626   8.9333670   8.9333670
   0.5422455   0.5422455   0.5334609   0.5334609   0.5333715   0.5333715
   0.5295606   0.5295606   0.5300939   0.5300939   0.5303412   0.5303412
   0.5320587   0.5320587   0.5266129   0.5266129   0.5350406   0.5350406
   0.5336157   0.5336157   0.5285129   0.5285129   0.5338387   0.5338387
 TTTTTTTTTTTTTTTTTTTTTTTTTTTTTT MOQGAD      TELAPSE      113.52 TCPU      112.78
 TTTTTTTTTTTTTTTTTTTTTTTTTTTTTT SHELLXN     TELAPSE      125.90 TCPU      125.17
 TTTTTTTTTTTTTTTTTTTTTTTTTTTTTT MONMO3      TELAPSE      126.89 TCPU      126.16
 NUMERICALLY INTEGRATED DENSITY    120.0000154963
 TTTTTTTTTTTTTTTTTTTTTTTTTTTTTT NUMDFT      TELAPSE      128.48 TCPU      127.74
 CYC   7 ETOT(AU) -9.155786428715E+02 DETOT -2.31E-07 tst  9.44E-10 PX  1.25E-04
 TTTTTTTTTTTTTTTTTTTTTTTTTTTTTT DIIS        TELAPSE      128.49 TCPU      127.75
 DIIS TEST: 0.19252E-07 AT SCF   CYCLE   7 - DIIS ACTIVE - HISTORY:     7 CYCLES
 TTTTTTTTTTTTTTTTTTTTTTTTTTTTTT FDIK        TELAPSE      128.50 TCPU      127.76
 INSULATING STATE
 TOP OF VALENCE BANDS -    BAND     60; K    8; EIG -3.5600127E-01 AU
 TOP OF VALENCE BANDS -    BAND     60; K    1; EIG -3.6278018E-01 AU
 BOTTOM OF VIRTUAL BANDS - BAND     61; K    1; EIG -2.1163609E-02 AU
 INDIRECT ENERGY BAND GAP:   9.1114 eV
 TTTTTTTTTTTTTTTTTTTTTTTTTTTTTT PDIG        TELAPSE      128.50 TCPU      127.76
 CHARGE NORMALIZATION FACTOR   1.00000000
 TOTAL ATOMIC CHARGES:
   8.9382268   8.9382268   8.9391859   8.9391859   8.9353635   8.9353635
   8.9335030   8.9335030   8.9315807   8.9315807   8.9333679   8.9333679
   0.5422508   0.5422508   0.5334669   0.5334669   0.5333703   0.5333703
   0.5295562   0.5295562   0.5301057   0.5301057   0.5303522   0.5303522
   0.5320579   0.5320579   0.5266135   0.5266135   0.5350409   0.5350409
   0.5336092   0.5336092   0.5285136   0.5285136   0.5338350   0.5338350
 TTTTTTTTTTTTTTTTTTTTTTTTTTTTTT MOQGAD      TELAPSE      128.51 TCPU      127.76
 TTTTTTTTTTTTTTTTTTTTTTTTTTTTTT SHELLXN     TELAPSE      140.90 TCPU      140.16
 +++ ENERGIES IN A.U. +++
 ::: EXT EL-POLE                                  -1.0004068364433E+03
 ::: EXT EL-SPHEROPOLE                             1.1766289836339E+01
 ::: BIELET ZONE E-E                               1.2370698754426E+03
 ::: TOTAL E-E                                     2.4842932883561E+02
 ::: TOTAL E-N + N-E                              -1.8234594936722E+03
 ::: TOTAL N-N                                    -1.8162624821833E+02
 ::: KINETIC ENERGY                                9.0975420356007E+02
 ::: PSEUDO TOTAL   ENERGY                        -8.4690220949485E+02
 ::: VIRIAL COEFFICIENT                            1.0357793325992E+00
 TTTTTTTTTTTTTTTTTTTTTTTTTTTTTT MONMO3      TELAPSE      141.88 TCPU      141.14
 NUMERICALLY INTEGRATED DENSITY    120.0000154966
 TTTTTTTTTTTTTTTTTTTTTTTTTTTTTT NUMDFT      TELAPSE      143.46 TCPU      142.72
 CYC   8 ETOT(AU) -9.155786428845E+02 DETOT -1.30E-08 tst  2.14E-11 PX  1.25E-04

 == SCF ENDED - CONVERGENCE ON ENERGY      E(AU) -9.1557864288448E+02 CYCLES   8


 ENERGY EXPRESSION=HARTREE+FOCK EXCH*0.00000+(HSE-3c     EXCH)*1.00000+PBEh-3c    CORR


 TOTAL ENERGY(DFT)(AU)(  8) -9.1557864288448E+02 DE-1.3E-08 tester 2.1E-11
 TTTTTTTTTTTTTTTTTTTTTTTTTTTTTT EDFT        TELAPSE      143.46 TCPU      142.72
 
 INFORMATION **** DFTD3 ENERGY **** CALCULATE DFTD3 ENERGY

           DFT-D V3(BJ)
 DF                                         hse3c     
 parameters
 s6       :    1.0000
 s8       :    0.0000
 a1       :    0.4411
 a2       :    4.5182
 k1 k3    :   16.0000   -4.0000
 Cutoff   :   50.2022
 CN-Cutoff:   21.1671
 
 Edisp /kcal,au:   -23.2885 -0.03711251

 E6    /kcal :   -25.0984
 E8    /kcal :     0.0000
 E6(ABC) "   :   1.809901
 
 INFORMATION **** DFTD3 ENERGY **** NORMAL TERMINATION OF DFTD3 MODULE

 GCP ENERGY CALCULATION
  level           hse3c               basis:hse3c
  Nbf            228
  Atoms           36

  Parameters: 
  sigma     1.0000
  eta       1.4086
  alpha     0.2908
  beta      1.9526

  dmp_scal      4.0000
  dmp_exp       6.0000
 cutoffs: 
   distance [bohr] 60.0
   noise    [a.u.] 2.2E-16
 SR-damping   T
 ** gCP correction **
  Egcp:        0.1595241717 / (a.u.) ||     100.1029 / (kcal/mol)
 INFORMATION **** GCP **** NORMAL TERMINATION OF GCP MODULE

 *******************************************************************************

 DFT-D3-GCP DISPERSION AND COUNTERPOISE CORRECTION

 D3 DISPERSION ENERGY (AU)      -3.7112507425075E-02
 GCP ENERGY (AU)                 1.5952417172485E-01
 TOTAL ENERGY + DISP + GCP (AU) -9.1545623122018E+02

 *******************************************************************************

 EIGENVECTORS IN FORTRAN UNIT  8
 TTTTTTTTTTTTTTTTTTTTTTTTTTTTTT END         TELAPSE      144.67 TCPU      143.91
 EEEEEEEEEE TERMINATION  DATE 25 03 2019 TIME 17:55:05.2
NODE    0 CPU TIME =       143.911
NODE    1 CPU TIME =       144.171
NODE    2 CPU TIME =       144.161
NODE    3 CPU TIME =       143.761
NODE    4 CPU TIME =       144.048
NODE    5 CPU TIME =       144.058
NODE    6 CPU TIME =       143.168
NODE    7 CPU TIME =       142.945
    TOTAL CPU TIME =      1150.222
