 PROCESS            0  OF            8  WORKING
 PROCESS            4  OF            8  WORKING
 PROCESS            2  OF            8  WORKING

         
 *******************************************************************************
 *                                                                             *
 *                               CRYSTAL17                                     *
 *                      public : 1.0.1 - Feb 1st, 2017                         *
 *                       HTTP://WWW.CRYSTAL.UNITO.IT                           *
 *                                                                             *
 *                              MAIN AUTHORS                                   *
 *                                                                             *
 *  R. DOVESI(1,11), V.R. SAUNDERS(2), C. ROETTI(1,11), R. ORLANDO(1,11),      *
 *  C.M. ZICOVICH-WILSON(1,3), F. PASCALE(4), B. CIVALLERI(1,11),              *
 *  K. DOLL(5), N.M. HARRISON(2,6), I.J. BUSH(7), Ph. D'ARCO(8),               *
 *  M. LLUNELL(9), M. CAUSA'(10), Y. NOEL(8), L. MASCHIO(1,11), A. ERBA(1,11)  *
 *  M. RE'RAT(14), S. CASASSA(1,11)                                            *
 *                                                                             *
 *        CONTRIBUTIONS TO THE CODE HAVE ALSO BEEN GIVEN BY                    *
 *                                                                             *
 *  M. FERRABONE(1,11), M. DE LA PIERRE(1,11), M. FERRERO(1,11),               *
 *  J. BAIMA(1,11), E. ALBANESE(1,11), M.F. PEINTINGER(12), R. BAST(13),       *
 *  B. KIRTMAN(15), V. LACIVITA(1,11), R. DEMICHELIS(1,16)                     *
 *  G. BRANDEBURG(17), S. SALUSTRO(1,11), G. SANSONE(1,11)                     *
 *  M.T. RUGGIERO(18)                                                          *
 *                                                                             *
 * (1) THEORETICAL CHEMISTRY GROUP - UNIVERSITA' DI TORINO - TORINO (ITALY)    *

 * (2) COMPUTATIONAL SCIENCE & ENGINEERING DEPARTMENT - STFC DARESBURY (UK)    *
 * (3) UNIVERSIDAD AUTONOMA DEL ESTADO DE MORELOS - CUERNAVACA (MEXICO)        *
 * (4) UNIVERSITE' DE LORRAINE - NANCY (FRANCE)                                *
 * (5) UNIVERSITAET STUTTGART- STUTTGART (GERMANY)                             *
 * (6) IMPERIAL COLLEGE - LONDON (UK)                                          *
 * (7) OXFORD E-RESEARCH CENTRE - OXFORD (UK)                                  *
 * (8) UPMC - SORBONNE UNIVERSITES - PARIS (FRANCE)                            *
 * (9) UNIVERSIDAD DE BARCELONA - BARCELONA (SPAIN)                            *
 *(10) UNIVERSITA' DI NAPOLI "FEDERICO II" - NAPOLI (ITALY)                    *
 *(11) NIS - NANOSTRUCTURED INTERFACES AND SURFACES - TORINO (ITALY)           *
 *(12) MPI FUER CHEMISCHE ENERGIEKONVERSION - MUELHEIM AN DER RUHR (GERMANY)   *
 *(13) UNIVERSITY OF TROMSO - TROMSO (NORWAY)                                  *
 *(14) UNIVERSITE' DE PAU ET DES PAYS DE L'ADOUR - PAU (FRANCE)                *
 *(15) UNIVERSITY OF CALIFORNIA SANTA BARBARA - SANTA BARBARA (USA)            *
 *(16) CURTIN UNIVERSITY - PERTH (AUSTRALIA)                                   *
 *(17) UNIVERSITY COLLEGE LONDON - LONDON (UK)                                 *
 *(18) CAMBRIDGE UNIVERSITY - CAMBRIDGE (UK)                                   *
 *                                                                             *
 *******************************************************************************
 EEEEEEEEEE STARTING  DATE 25 03 2019 TIME 17:46:24.3
 PROCESS            7  OF            8  WORKING
 !drive by JGB                                                                   
 PROCESS            5  OF            8  WORKING
 PROCESS            6  OF            8  WORKING
 PROCESS            3  OF            8  WORKING

 CRYSTAL CALCULATION
 (INPUT ACCORDING TO THE INTERNATIONAL TABLES FOR X-RAY CRYSTALLOGRAPHY)
 CRYSTAL FAMILY                       :  MONOCLINIC  
 CRYSTAL CLASS  (GROTH - 1921)        :  MONOCLINIC SPHENOIDAL                

 SPACE GROUP (NONCENTROSYMMETRIC)     :  C 2             

 LATTICE PARAMETERS  (ANGSTROMS AND DEGREES) - CONVENTIONAL CELL
        A           B           C        ALPHA        BETA       GAMMA
    10.73794     6.20035     6.47080    90.00000    91.95159    90.00000
 PROCESS            1  OF            8  WORKING


 NUMBER OF IRREDUCIBLE ATOMS IN THE CONVENTIONAL CELL:   14

 INPUT COORDINATES

 ATOM AT. N.              COORDINATES
   1   8     0.000000000000E+00  2.814798802073E-01  5.000000000000E-01
   2   8     7.617115678723E-02  9.699915178420E-01  2.312430758666E-01
   3   8     7.546535341139E-01  9.159161596936E-01  4.266494895054E-01
   4   8     8.148588062996E-01  1.945648720727E-01  9.254603656875E-02
   5   8     8.891272620092E-01  6.363160530530E-01  1.720978292315E-01
   6   1     7.383435297757E-02  3.710510331031E-01  4.937585702227E-01
   7   1     1.436091828100E-01  9.377758238904E-01  3.316640501262E-01
   8   1     2.837364867799E-02  7.834446791021E-02  3.042143809349E-01
   9   1     7.711781783532E-01  3.079533985613E-02  3.286187675486E-01
  10   1     7.911089278379E-01  7.904375713392E-01  3.612390171581E-01
  11   1     8.614830162082E-01  1.200933569676E-01  9.864960439345E-01
  12   1     8.550382738761E-01  3.325180701955E-01  1.200062268218E-01
  13   1     8.349191507718E-01  6.845939291943E-01  5.735831744064E-02
  14   1     9.611410771472E-01  7.316168647789E-01  1.772804934925E-01

 *******************************************************************************

 << INFORMATION >>: FROM NOW ON, ALL COORDINATES REFER TO THE PRIMITIVE CELL

 *******************************************************************************

 LATTICE PARAMETERS  (ANGSTROMS AND DEGREES) - PRIMITIVE CELL
       A          B          C        ALPHA      BETA     GAMMA        VOLUME
    6.19975    6.19975    6.47080    88.31001  91.68999 119.99366    215.284755

 COORDINATES OF THE EQUIVALENT ATOMS (FRACTIONAL UNITS)

 N. ATOM EQUIV AT. N.          X                  Y                  Z

   1   1   1    8 O     2.81479880207E-01  2.81479880207E-01 -5.00000000000E-01

   2   2   1    8 O     4.61626746292E-02 -1.06179638945E-01  2.31243075867E-01
   3   2   2    8 O    -1.06179638945E-01  4.61626746292E-02 -2.31243075867E-01

   4   3   1    8 O    -3.29430306192E-01  1.61262625580E-01  4.26649489505E-01
   5   3   2    8 O     1.61262625580E-01 -3.29430306192E-01 -4.26649489505E-01

   6   4   1    8 O     9.42367837230E-03  3.79706065773E-01  9.25460365688E-02
   7   4   2    8 O     3.79706065773E-01  9.42367837230E-03 -9.25460365688E-02

   8   5   1    8 O    -4.74556684938E-01 -2.52811208956E-01  1.72097829231E-01
   9   5   2    8 O    -2.52811208956E-01 -4.74556684938E-01 -1.72097829231E-01

  10   6   1    1 H     4.44885386081E-01  2.97216680126E-01  4.93758570223E-01
  11   6   2    1 H     2.97216680126E-01  4.44885386081E-01 -4.93758570223E-01

  12   7   1    1 H     8.13850067004E-02 -2.05833358920E-01  3.31664050126E-01
  13   7   2    1 H    -2.05833358920E-01  8.13850067004E-02 -3.31664050126E-01

  14   8   1    1 H     1.06718116588E-01  4.99708192322E-02  3.04214380935E-01
  15   8   2    1 H     4.99708192322E-02  1.06718116588E-01 -3.04214380935E-01

  16   9   1    1 H    -1.98026481791E-01  2.59617161503E-01  3.28618767549E-01
  17   9   2    1 H     2.59617161503E-01 -1.98026481791E-01 -3.28618767549E-01

  18  10   1    1 H    -4.18453500823E-01 -6.71356498700E-04  3.61239017158E-01
  19  10   2    1 H    -6.71356498700E-04 -4.18453500823E-01 -3.61239017158E-01

  20  11   1    1 H    -1.84236268242E-02  2.58610340759E-01 -1.35039560655E-02
  21  11   2    1 H     2.58610340759E-01 -1.84236268242E-02  1.35039560655E-02

  22  12   1    1 H     1.87556344072E-01  4.77479796319E-01  1.20006226822E-01
  23  12   2    1 H     4.77479796319E-01  1.87556344072E-01 -1.20006226822E-01

  24  13   1    1 H    -4.80486920034E-01 -1.50325221578E-01  5.73583174406E-02
  25  13   2    1 H    -1.50325221578E-01 -4.80486920034E-01 -5.73583174406E-02

  26  14   1    1 H    -3.07242058074E-01 -2.29524212368E-01  1.77280493492E-01
  27  14   2    1 H    -2.29524212368E-01 -3.07242058074E-01 -1.77280493492E-01

 NUMBER OF SYMMETRY OPERATORS         :    2
 *******************************************************************************
 * GEOMETRY EDITING - INPUT COORDINATES ARE GIVEN IN ANGSTROM         
 *******************************************************************************

 GEOMETRY NOW FULLY CONSISTENT WITH THE GROUP

 GCALCO - MAX INDICES DIRECT LATTICE VECTOR    15    15    13
 NO.OF VECTORS CREATED 6999 STARS 1813 RMAX   134.59013 BOHR

 GEOMETRY FOR WAVE FUNCTION - DIMENSIONALITY OF THE SYSTEM    3
 (NON PERIODIC DIRECTION: LATTICE PARAMETER FORMALLY SET TO 500)
 *******************************************************************************
 LATTICE PARAMETERS (ANGSTROMS AND DEGREES) - BOHR = 0.5291772083 ANGSTROM
 PRIMITIVE CELL - CENTRING CODE 4/0 VOLUME=   215.284755 - DENSITY  1.250 g/cm^3
         A              B              C           ALPHA      BETA       GAMMA 
     6.19975318     6.19975318     6.47080179    88.310006  91.689994 119.993662
 *******************************************************************************
 ATOMS IN THE ASYMMETRIC UNIT   14 - ATOMS IN THE UNIT CELL:   27
     ATOM                 X/A                 Y/B                 Z/C    
 *******************************************************************************
      1 T   8 O     2.814798802073E-01  2.814798802073E-01 -5.000000000000E-01
      2 T   8 O     4.616267462919E-02 -1.061796389453E-01  2.312430758666E-01
      3 F   8 O    -1.061796389453E-01  4.616267462919E-02 -2.312430758666E-01
      4 T   8 O    -3.294303061925E-01  1.612626255797E-01  4.266494895054E-01
      5 F   8 O     1.612626255797E-01 -3.294303061925E-01 -4.266494895054E-01
      6 T   8 O     9.423678372300E-03  3.797060657731E-01  9.254603656875E-02
      7 F   8 O     3.797060657731E-01  9.423678372300E-03 -9.254603656875E-02
      8 T   8 O    -4.745566849378E-01 -2.528112089562E-01  1.720978292315E-01
      9 F   8 O    -2.528112089562E-01 -4.745566849378E-01 -1.720978292315E-01
     10 T   1 H     4.448853860807E-01  2.972166801255E-01  4.937585702227E-01
     11 F   1 H     2.972166801255E-01  4.448853860807E-01 -4.937585702227E-01
     12 T   1 H     8.138500670044E-02 -2.058333589196E-01  3.316640501262E-01
     13 F   1 H    -2.058333589196E-01  8.138500670044E-02 -3.316640501262E-01
     14 T   1 H     1.067181165882E-01  4.997081923222E-02  3.042143809349E-01
     15 F   1 H     4.997081923222E-02  1.067181165882E-01 -3.042143809349E-01
     16 T   1 H    -1.980264817907E-01  2.596171615029E-01  3.286187675486E-01
     17 F   1 H     2.596171615029E-01 -1.980264817907E-01 -3.286187675486E-01
     18 T   1 H    -4.184535008229E-01 -6.713564987000E-04  3.612390171581E-01
     19 F   1 H    -6.713564987000E-04 -4.184535008229E-01 -3.612390171581E-01
     20 T   1 H    -1.842362682420E-02  2.586103407594E-01 -1.350395606547E-02
     21 F   1 H     2.586103407594E-01 -1.842362682420E-02  1.350395606547E-02
     22 T   1 H     1.875563440716E-01  4.774797963194E-01  1.200062268218E-01
     23 F   1 H     4.774797963194E-01  1.875563440716E-01 -1.200062268218E-01
     24 T   1 H    -4.804869200339E-01 -1.503252215775E-01  5.735831744064E-02
     25 F   1 H    -1.503252215775E-01 -4.804869200339E-01 -5.735831744064E-02
     26 T   1 H    -3.072420580739E-01 -2.295242123683E-01  1.772804934925E-01
     27 F   1 H    -2.295242123683E-01 -3.072420580739E-01 -1.772804934925E-01

 TRANSFORMATION MATRIX PRIMITIVE-CRYSTALLOGRAPHIC CELL
  1.0000  1.0000  0.0000 -1.0000  1.0000  0.0000  0.0000  0.0000  1.0000

 *******************************************************************************
 CRYSTALLOGRAPHIC CELL (VOLUME=        430.56950962)
         A              B              C           ALPHA      BETA       GAMMA 
    10.73794461     6.20034706     6.47080179    90.000000  91.951594  90.000000

 COORDINATES IN THE CRYSTALLOGRAPHIC CELL
     ATOM                 X/A                 Y/B                 Z/C    
 *******************************************************************************
      1 T   8 O     0.000000000000E+00  2.814798802073E-01 -5.000000000000E-01
      2 T   8 O     7.617115678723E-02 -3.000848215804E-02  2.312430758666E-01
      3 F   8 O    -7.617115678723E-02 -3.000848215804E-02 -2.312430758666E-01
      4 T   8 O    -2.453464658861E-01 -8.408384030639E-02  4.266494895054E-01
      5 F   8 O     2.453464658861E-01 -8.408384030639E-02 -4.266494895054E-01
      6 T   8 O    -1.851411937004E-01  1.945648720727E-01  9.254603656875E-02
      7 F   8 O     1.851411937004E-01  1.945648720727E-01 -9.254603656875E-02
      8 T   8 O    -1.108727379908E-01 -3.636839469470E-01  1.720978292315E-01
      9 F   8 O     1.108727379908E-01 -3.636839469470E-01 -1.720978292315E-01
     10 T   1 H     7.383435297757E-02  3.710510331031E-01  4.937585702227E-01
     11 F   1 H    -7.383435297757E-02  3.710510331031E-01 -4.937585702227E-01
     12 T   1 H     1.436091828100E-01 -6.222417610956E-02  3.316640501262E-01
     13 F   1 H    -1.436091828100E-01 -6.222417610956E-02 -3.316640501262E-01
     14 T   1 H     2.837364867799E-02  7.834446791021E-02  3.042143809349E-01
     15 F   1 H    -2.837364867799E-02  7.834446791021E-02 -3.042143809349E-01
     16 T   1 H    -2.288218216468E-01  3.079533985613E-02  3.286187675486E-01
     17 F   1 H     2.288218216468E-01  3.079533985613E-02 -3.286187675486E-01
     18 T   1 H    -2.088910721621E-01 -2.095624286608E-01  3.612390171581E-01
     19 F   1 H     2.088910721621E-01 -2.095624286608E-01 -3.612390171581E-01
     20 T   1 H    -1.385169837918E-01  1.200933569676E-01 -1.350395606547E-02
     21 F   1 H     1.385169837918E-01  1.200933569676E-01  1.350395606547E-02
     22 T   1 H    -1.449617261239E-01  3.325180701955E-01  1.200062268218E-01
     23 F   1 H     1.449617261239E-01  3.325180701955E-01 -1.200062268218E-01
     24 T   1 H    -1.650808492282E-01 -3.154060708057E-01  5.735831744064E-02
     25 F   1 H     1.650808492282E-01 -3.154060708057E-01 -5.735831744064E-02
     26 T   1 H    -3.885892285280E-02 -2.683831352211E-01  1.772804934925E-01
     27 F   1 H     3.885892285280E-02 -2.683831352211E-01 -1.772804934925E-01

 T = ATOM BELONGING TO THE ASYMMETRIC UNIT

 ****    2 SYMMOPS - TRANSLATORS IN FRACTIONAL UNITS
 **** MATRICES AND TRANSLATORS IN THE CRYSTALLOGRAPHIC REFERENCE FRAME
   V INV                    ROTATION MATRICES                   TRANSLATORS
   1   1  1.00  0.00  0.00  0.00  1.00  0.00  0.00  0.00  1.00  0.00  0.00  0.00
   2   2  0.00  1.00  0.00  1.00  0.00 -0.00  0.00  0.00 -1.00  0.00  0.00  0.00

 DIRECT LATTICE VECTORS CARTESIAN COMPONENTS (ANGSTROM)
          X                    Y                    Z
   0.536897230500E+01   0.310017353000E+01   0.000000000000E+00
  -0.536897230500E+01   0.310017353000E+01   0.000000000000E+00
  -0.220364157457E+00   0.396222335002E-15   0.646704843368E+01


 CARTESIAN COORDINATES - PRIMITIVE CELL
 *******************************************************************************
 *      ATOM          X(ANGSTROM)         Y(ANGSTROM)         Z(ANGSTROM)
 *******************************************************************************
    1     8 O    -1.101820787284E-01  1.745272947692E+00  3.233524216840E+00
    2     8 O     7.669639768798E-01 -1.860630041237E-01  1.495460171583E+00
    3     8 O    -7.669639768798E-01 -1.860630041237E-01 -1.495460171583E+00
    4     8 O    -2.728535016228E+00 -5.213489920372E-01  2.759162912837E+00
    5     8 O     2.728535016228E+00 -5.213489920372E-01 -2.759162912837E+00
    6     8 O    -2.008429712359E+00  1.206369732535E+00  5.984997008353E-01
    7     8 O     2.008429712359E+00  1.206369732535E+00 -5.984997008353E-01
    8     8 O    -1.228469512443E+00 -2.254966691222E+00  1.112964996971E+00
    9     8 O     1.228469512443E+00 -2.254966691222E+00 -1.112964996971E+00
   10     1 H     6.840225012741E-01  2.300645182211E+00  3.193160588175E+00
   11     1 H    -6.840225012741E-01  2.300645182211E+00 -3.193160588175E+00
   12     1 H     1.468980581536E+00 -3.858114874018E-01  2.144887475877E+00
   13     1 H    -1.468980581536E+00 -3.858114874018E-01 -2.144887475877E+00
   14     1 H     2.376367221469E-01  4.857628912743E-01  1.967369135728E+00
   15     1 H    -2.376367221469E-01  4.857628912743E-01 -1.967369135728E+00
   16     1 H    -2.529491844238E+00  1.909417949387E-01  2.125193485953E+00
   17     1 H     2.529491844238E+00  1.909417949387E-01 -2.125193485953E+00
   18     1 H    -2.322664894057E+00 -1.299359788433E+00  2.336150220097E+00
   19     1 H     2.322664894057E+00 -1.299359788433E+00 -2.336150220097E+00
   20     1 H    -1.484411911600E+00  7.446204927996E-01 -8.733073792169E-02
   21     1 H     1.484411911600E+00  7.446204927996E-01  8.733073792169E-02
   22     1 H    -1.583036056752E+00  2.061727438934E+00  7.760860811999E-01
   23     1 H     1.583036056752E+00  2.061727438934E+00 -7.760860811999E-01
   24     1 H    -1.785268732480E+00 -1.955627103826E+00  3.709390169631E-01
   25     1 H     1.785268732480E+00 -1.955627103826E+00 -3.709390169631E-01
   26     1 H    -4.563312277796E-01 -1.664068583422E+00  1.146481537763E+00
   27     1 H     4.563312277796E-01 -1.664068583422E+00 -1.146481537763E+00

 *******************************************************************************
 STARTING BASIS SET HANDLING 
 *******************************************************************************

 Loading internal basis set: DEF2-MSVP           

 Please cite in your publication:
 Fully Optimized Contracted Gaussian Basis Sets for Atoms Li to Kr. A. Schäfer, 
 H. Horn and R. Ahlrichs; J. Chem. Phys. 97, 2571 (1992).                       
                                                                                
                    
 S. Grimme, J. G. Brandenburg, C. Bannwarth, and A. Hansen, J. Chem. Phys., 143,
  054107 (2015).                                                                
                                                                                
                    

 *******************************************************************************
 LOCAL ATOMIC FUNCTIONS BASIS SET
 *******************************************************************************
   ATOM   X(AU)   Y(AU)   Z(AU)  N. TYPE  EXPONENT  S COEF   P COEF   D/F/G COEF
 *******************************************************************************
   1 O   -0.208   3.298   6.110
                                  1 S  
                                         6.773E+03 1.727E-03 0.000E+00 0.000E+00
                                         1.017E+03 1.325E-02 0.000E+00 0.000E+00
                                         2.313E+02 6.603E-02 0.000E+00 0.000E+00
                                         6.501E+01 2.353E-01 0.000E+00 0.000E+00
                                         2.050E+01 5.498E-01 0.000E+00 0.000E+00
                                  2 S  
                                         6.716E+00 1.000E+00 0.000E+00 0.000E+00
                                  3 S  
                                         1.147E+00 1.000E+00 0.000E+00 0.000E+00
                                  4 S  
                                         3.342E-01 1.000E+00 0.000E+00 0.000E+00
                           5-     7 P  
                                         1.769E+01 0.000E+00 4.359E-02 0.000E+00
                                         3.854E+00 0.000E+00 2.318E-01 0.000E+00
                                         1.047E+00 0.000E+00 5.146E-01 0.000E+00
                           8-    10 P  
                                         2.759E-01 0.000E+00 1.000E+00 0.000E+00
                          11-    15 D  
                                         8.000E-01 0.000E+00 0.000E+00 1.000E+00
   2 O    1.449  -0.352   2.826
   3 O   -1.449  -0.352  -2.826
   4 O   -5.156  -0.985   5.214
   5 O    5.156  -0.985  -5.214
   6 O   -3.795   2.280   1.131
   7 O    3.795   2.280  -1.131
   8 O   -2.321  -4.261   2.103
   9 O    2.321  -4.261  -2.103
  10 H    1.293   4.348   6.034
                                136 S  
                                         1.874E+01 1.968E-02 0.000E+00 0.000E+00
                                         2.826E+00 1.380E-01 0.000E+00 0.000E+00
                                         6.401E-01 4.783E-01 0.000E+00 0.000E+00
                                137 S  
                                         1.756E-01 1.000E+00 0.000E+00 0.000E+00
  11 H   -1.293   4.348  -6.034
  12 H    2.776  -0.729   4.053
  13 H   -2.776  -0.729  -4.053
  14 H    0.449   0.918   3.718
  15 H   -0.449   0.918  -3.718
  16 H   -4.780   0.361   4.016
  17 H    4.780   0.361  -4.016
  18 H   -4.389  -2.455   4.415
  19 H    4.389  -2.455  -4.415
  20 H   -2.805   1.407  -0.165
  21 H    2.805   1.407   0.165
  22 H   -2.992   3.896   1.467
  23 H    2.992   3.896  -1.467
  24 H   -3.374  -3.696   0.701
  25 H    3.374  -3.696  -0.701
  26 H   -0.862  -3.145   2.167
  27 H    0.862  -3.145  -2.167

 *******************************************************************************
 FINISHED BASIS SET HANDLING 
 *******************************************************************************

 INFORMATION **** SET_MPP **** PCRYSTAL CALCULATION
 INFORMATION **** READM2 **** NEW DEFAULT: FOCK/KS MATRIX MIXING SET TO 30 %
 INFORMATION **** READM2 **** NEW DEFAULT: FULL DIRECT SCF MODE
 INFORMATION **** READM2 **** NEW DEFAULT: COULOMB BIPOLAR BUFFER SET TO 32 Mb
 INFORMATION **** READM2 **** NEW DEFAULT: EXCHANGE BIPOLAR BUFFER SET TO 32 Mb

 *******************************************************************************
 NEW DEFAULT: DFT INTEGRATION GRID INCREASED TO XLGRID
 NEW DEFAULT: DIIS ACCELERATOR ACTIVE
 USE KEYWORD NODIIS TO TURN IT OFF
 *******************************************************************************

 INFORMATION **** RDDFTP **** HSE-3c calculation
 INFORMATION **** RDDFTP **** HSE screened hybrid functional combined with D3 and gCP

PLEASE CITE:
(1) HSE-3c Reference
 J. G. Brandenburg, E. Caldeweyer, and S. Grimme, 
 Phys. Chem. Chem. Phys. 18, 15519 (2016)
(2) DFT-D3 Reference
 S. Grimme, J. Antony, S. Ehrlich,
 and H. Krieg, J. Chem. Phys. 132, 154104 (2010)
(3) gCP Reference
 H. Kruse and S. Grimme J. Chem. Phys, 136, 154101 (2012)
 J. G. Brandenburg, M. Alessio, B. Civalleri, M. F. Peintinger
 T. Bredow, and S. Grimme, J. Phys. Chem. A, 117, 9282 (2013) 

 WARNING **** RDDFTP **** HSE3c-HJS ACTIVE
 RANGE SEPARATION - OMEGA:   0.110000000000000     
 WARNING **** RDDFTP **** HSE-3c has to be combined with def2-mSVP basis set
 WARNING **** RDDFTP **** Note: Harmonic frequencies are scaled by 0.95
 WARNING **** RDDFTP **** as recommended in original publication
 INFORMATION **** BIPOSIZE **** COULOMB BIPOLAR BUFFER SET TO    60000000
 INFORMATION **** EXCHSIZE **** EXCHANGE BIPOLAR BUFFER SIZE SET TO    40000000
 *******************************************************************************
 N. OF ATOMS PER CELL        27  COULOMB OVERLAP TOL         (T1) 10**   -6
 NUMBER OF SHELLS            99  COULOMB PENETRATION TOL     (T2) 10**   -6
 NUMBER OF AO               171  EXCHANGE OVERLAP TOL        (T3) 10**   -6
 N. OF ELECTRONS PER CELL    90  EXCHANGE PSEUDO OVP (F(G))  (T4) 10**   -6
 CORE ELECTRONS PER CELL     18  EXCHANGE PSEUDO OVP (P(G))  (T5) 10**  -12
 N. OF SYMMETRY OPERATORS     2  POLE ORDER IN MONO ZONE                  4
 *******************************************************************************
 TYPE OF CALCULATION :  RESTRICTED CLOSED SHELL
 KOHN-SHAM HAMILTONIAN

 (EXCHANGE)[CORRELATION] FUNCTIONAL:(HSE-3c)[PBEh-3c]

 RANGE-SEPARATED HYBRID FUNCTIONAL 
 OMEGA (SHORT-RANGE)[LONG-RANGE]:(    0.1100)[    0.0000]

 HYBRID EXCHANGE - PERCENTAGE OF FOCK EXCHANGE    42.0000

 CAPPA:IS1  2;IS2  2;IS3  2; K PTS MONK NET   6; SYMMOPS:K SPACE   4;G SPACE   2

 *******************************************************************************
 MAX NUMBER OF SCF CYCLES      50  CONVERGENCE ON DELTAP        10**-16
 WEIGHT OF F(I) IN F(I+1)      30% CONVERGENCE ON ENERGY        10**- 6
 S(K) EIGENV. THRESHOLD  10*10.**-4
 SHRINK. FACT.(MONKH.)    2  2  2  NUMBER OF K POINTS IN THE IBZ      6
 SHRINKING FACTOR(GILAT NET)    2  NUMBER OF K POINTS(GILAT NET)      6
 *******************************************************************************
 *** K POINTS COORDINATES (OBLIQUE COORDINATES IN UNITS OF IS =  2)
   1-R(  0  0  0)   2-R(  1  0  0)   3-R(  1  1  0)   4-R(  0  0  1)
   5-R(  1  0  1)   6-R(  1  1  1)

 DIRECT LATTICE VECTORS COMPON. (A.U.)     RECIP. LATTICE VECTORS COMPON. (A.U.) 
        X            Y            Z              X            Y            Z
   10.1458873    5.8584789    0.0000000      0.3096420    0.5362472    0.0105510
  -10.1458873    5.8584789    0.0000000     -0.3096420    0.5362472   -0.0105510
   -0.4164279    0.0000000   12.2209504      0.0000000    0.0000000    0.5141323

 DISK SPACE FOR EIGENVECTORS (FTN 10)      175446 REALS

 SYMMETRY ADAPTION OF THE BLOCH FUNCTIONS ENABLED
 TTTTTTTTTTTTTTTTTTTTTTTTTTTTTT gordsh1     TELAPSE        0.14 TCPU        0.04

 MATRIX SIZE: P(G)  109123, F(G)   19025, P(G) IRR   28120, F(G) IRR    9733
 MAX G-VECTOR INDEX FOR 1- AND 2-ELECTRON INTEGRALS  71

 TTTTTTTTTTTTTTTTTTTTTTTTTTTTTT INPUT       TELAPSE        0.14 TCPU        0.05

 NEIGHBORS OF THE NON-EQUIVALENT ATOMS

 N = NUMBER OF NEIGHBORS AT DISTANCE R
    ATOM  N     R/ANG      R/AU   NEIGHBORS (ATOM LABELS AND CELL INDICES)
   1 O    2     0.9700     1.8330   10 H    0 0 0   11 H    0 0 1
   1 O    2     1.8195     3.4383   14 H    0 0 0   15 H    0 0 1
   1 O    2     2.7423     5.1822    2 O    0 0 0    3 O    0 0 1
   1 O    2     2.8671     5.4181   12 H    0 0 0   13 H    0 0 1
   1 O    2     2.8824     5.4470   22 H    0 0 0   23 H    0 0 1
   1 O    2     2.9130     5.5048    4 O    1 0 0    5 O    0 1 1

   2 O    1     0.9768     1.8460   14 H    0 0 0
   2 O    1     0.9770     1.8462   12 H    0 0 0
   2 O    1     1.8340     3.4658   21 H    0 0 0
   2 O    1     1.9501     3.6851   26 H    0 0 0
   2 O    1     2.7423     5.1822    1 O    0 0 0
   2 O    1     2.7662     5.2273   25 H    0 0 0

   4 O    1     0.9741     1.8408   16 H    0 0 0
   4 O    1     0.9742     1.8409   18 H    0 0 0
   4 O    1     1.8818     3.5561   13 H    0 0 1
   4 O    1     2.0232     3.8233   10 H   -1 0 0
   4 O    1     2.7502     5.1972   19 H    0 1 1
   4 O    1     2.8223     5.3334    8 O    0 0 0

   6 O    1     0.9717     1.8362   22 H    0 0 0
   6 O    1     0.9789     1.8498   20 H    0 0 0
   6 O    1     1.8507     3.4973   25 H    0 1 0
   6 O    1     1.9061     3.6021   16 H    0 0 0
   6 O    1     2.7272     5.1538   14 H    0 0 0
   6 O    1     2.7578     5.2114    9 O    0 1 0

   8 O    1     0.9729     1.8385   26 H    0 0 0
   8 O    1     0.9748     1.8421   24 H    0 0 0
   8 O    1     1.8991     3.5888   18 H    0 0 0
   8 O    1     1.9461     3.6776   22 H   -1-1 0
   8 O    1     2.7349     5.1682   11 H   -1-1 1
   8 O    1     2.7578     5.2114    7 O   -1 0 0

  10 H    1     0.9700     1.8330    1 O    0 0 0
  10 H    1     1.5905     3.0055   11 H    0 0 1
  10 H    1     2.0232     3.8233    4 O    1 0 0
  10 H    1     2.2351     4.2237   14 H    0 0 0
  10 H    1     2.5110     4.7451   15 H    0 0 1
  10 H    1     2.5622     4.8418   18 H    1 0 0

  12 H    1     0.9770     1.8462    2 O    0 0 0
  12 H    1     1.5190     2.8705   14 H    0 0 0
  12 H    1     1.8818     3.5561    5 O    0 0 1
  12 H    1     2.2759     4.3009   19 H    0 0 1
  12 H    1     2.3477     4.4365   21 H    0 0 0
  12 H    1     2.4218     4.5766   17 H    0 0 1

  14 H    1     0.9768     1.8460    2 O    0 0 0
  14 H    1     1.5190     2.8705   12 H    0 0 0
  14 H    1     1.8195     3.4383    1 O    0 0 0
  14 H    1     2.2351     4.2237   10 H    0 0 0
  14 H    1     2.2707     4.2910   21 H    0 0 0
  14 H    1     2.4036     4.5421   26 H    0 0 0

  16 H    1     0.9741     1.8408    4 O    0 0 0
  16 H    1     1.5193     2.8711   18 H    0 0 0
  16 H    1     1.9061     3.6021    6 O    0 0 0
  16 H    1     2.4218     4.5766   13 H    0 0 1
  16 H    1     2.4931     4.7113   22 H    0 0 0
  16 H    1     2.5088     4.7409   20 H    0 0 0

  18 H    1     0.9742     1.8409    4 O    0 0 0
  18 H    1     1.5193     2.8711   16 H    0 0 0
  18 H    1     1.8991     3.5888    8 O    0 0 0
  18 H    1     2.1405     4.0449   24 H    0 0 0
  18 H    1     2.2431     4.2389   26 H    0 0 0
  18 H    1     2.2759     4.3009   13 H    0 0 1

  20 H    1     0.9789     1.8498    6 O    0 0 0
  20 H    1     1.5780     2.9819   22 H    0 0 0
  20 H    1     1.8340     3.4658    3 O    0 0 0
  20 H    1     2.1558     4.0738   25 H    0 1 0
  20 H    1     2.2707     4.2910   15 H    0 0 0
  20 H    1     2.3477     4.4365   13 H    0 0 0

  22 H    1     0.9717     1.8362    6 O    0 0 0
  22 H    1     1.5780     2.9819   20 H    0 0 0
  22 H    1     1.9461     3.6776    8 O    1 1 0
  22 H    1     2.2295     4.2131   24 H    1 1 0
  22 H    1     2.4818     4.6900   25 H    0 1 0
  22 H    1     2.4931     4.7113   16 H    0 0 0

  24 H    1     0.9748     1.8421    8 O    0 0 0
  24 H    1     1.5661     2.9594   26 H    0 0 0
  24 H    1     1.8507     3.4973    7 O   -1 0 0
  24 H    1     2.1405     4.0449   18 H    0 0 0
  24 H    1     2.1558     4.0738   21 H   -1 0 0
  24 H    1     2.2295     4.2131   22 H   -1-1 0

  26 H    1     0.9729     1.8385    8 O    0 0 0
  26 H    1     1.5661     2.9594   24 H    0 0 0
  26 H    1     1.9501     3.6851    2 O    0 0 0
  26 H    1     2.2431     4.2389   18 H    0 0 0
  26 H    1     2.4036     4.5421   14 H    0 0 0
  26 H    1     2.4679     4.6637   27 H    0 0 0


 SYMMETRY ALLOWED INTERNAL DEGREE(S) OF FREEDOM:  39
 TTTTTTTTTTTTTTTTTTTTTTTTTTTTTT SYMM        TELAPSE        0.16 TCPU        0.06
 TTTTTTTTTTTTTTTTTTTTTTTTTTTTTT INT_SCREEN  TELAPSE        0.16 TCPU        0.07

 DFT PARAMETERS

     ATOM       ELECTRONS   NET CHARGE   R(ANGSTROM)
   1   8  O       8.0000      0.0000     0.74000000
  10   1  H       1.0000      0.0000     1.11000000

 SIZE OF GRID=     294122
 TTTTTTTTTTTTTTTTTTTTTTTTTTTTTT MAKE_GRID2  TELAPSE        5.45 TCPU        5.35
 BECKE WEIGHT FUNCTION
 RADSAFE =     2.00
 TOLERANCES - DENSITY:10**- 6; POTENTIAL:10**- 9; GRID WGT:10**-14

 RADIAL INTEGRATION  - INTERVALS (POINTS,UPPER LIMIT):            1( 75,  4.0*R)

 ANGULAR INTEGRATION - INTERVALS (ACCURACY LEVEL [N. POINTS] UPPER LIMIT):
  1(  4[  86]   0.2)  2(  8[ 194]   0.5)  3( 12[ 350]   0.9)  4( 16[ 974]   3.5)
  5( 12[ 350]9999.0)
 TTTTTTTTTTTTTTTTTTTTTTTTTTTTTT INT_CALC    TELAPSE        5.48 TCPU        5.37
 EEEEEEEEEE INT_CALC TERMINATION  DATE 25 03 2019 TIME 17:46:29.7

 *******************************************************************************
 !drive by JGB                                                                   
 CRYSTAL - SCF - TYPE OF CALCULATION :  RESTRICTED CLOSED SHELL
 *******************************************************************************

 CAPPA:IS1  2;IS2  2;IS3  2; K PTS MONK NET   6; SYMMOPS:K SPACE   4;G SPACE   2

 TTTTTTTTTTTTTTTTTTTTTTTTTTTTTT SDIK        TELAPSE        5.59 TCPU        5.47

 AAAAAAAAAAAAAAAAAAAAAAAAAAAAAAAAAAAAAAAAAAAAAAAAAAAAAAAAAAAAAAAAAAAAAAAAAAAAAAA
         ATOMIC WAVEFUNCTION(S)


 NUCLEAR CHARGE  8.0  SYMMETRY SPECIES            S    P
 N. ELECTRONS    8.0  NUMBER OF PRIMITIVE GTOS    8    4
                      NUMBER OF CONTRACTED GTOS   4    2
                      NUMBER OF CLOSED SHELLS     2    0
                      OPEN SHELL OCCUPATION       0    4

  ZNUC SCFIT  TOTAL HF ENERGY   KINETIC ENERGY   VIRIAL THEOREM ACCURACY
   8.0  12   -7.477373220E+01  7.477365593E+01 -2.000001020E+00  3.8E-06

 NUCLEAR CHARGE  1.0  SYMMETRY SPECIES            S
 N. ELECTRONS    1.0  NUMBER OF PRIMITIVE GTOS    4
                      NUMBER OF CONTRACTED GTOS   2
                      NUMBER OF CLOSED SHELLS     0
                      OPEN SHELL OCCUPATION       1

  ZNUC SCFIT  TOTAL HF ENERGY   KINETIC ENERGY   VIRIAL THEOREM ACCURACY
   1.0   1   -4.977266687E-01  5.190767460E-01 -1.958869132E+00  1.8E-16

 AAAAAAAAAAAAAAAAAAAAAAAAAAAAAAAAAAAAAAAAAAAAAAAAAAAAAAAAAAAAAAAAAAAAAAAAAAAAAAA

 CHARGE NORMALIZATION FACTOR   1.00000000
 TOTAL ATOMIC CHARGES:
   8.0000000   8.0000000   8.0000000   8.0000000   8.0000000   8.0000000
   8.0000000   8.0000000   8.0000000   1.0000000   1.0000000   1.0000000
   1.0000000   1.0000000   1.0000000   1.0000000   1.0000000   1.0000000
   1.0000000   1.0000000   1.0000000   1.0000000   1.0000000   1.0000000
   1.0000000   1.0000000   1.0000000
 TTTTTTTTTTTTTTTTTTTTTTTTTTTTTT MOQGAD      TELAPSE        5.74 TCPU        5.62
 TTTTTTTTTTTTTTTTTTTTTTTTTTTTTT SHELLXN     TELAPSE       15.05 TCPU       14.76
 TTTTTTTTTTTTTTTTTTTTTTTTTTTTTT MONMO3      TELAPSE       16.77 TCPU       16.48
 NUMERICALLY INTEGRATED DENSITY     89.9999881749
 TTTTTTTTTTTTTTTTTTTTTTTTTTTTTT NUMDFT      TELAPSE       17.35 TCPU       17.06
 CYC   0 ETOT(AU) -6.867323683097E+02 DETOT -6.87E+02 tst  0.00E+00 PX  1.00E+00
 TTTTTTTTTTTTTTTTTTTTTTTTTTTTTT DIIS        TELAPSE       17.35 TCPU       17.06
 TTTTTTTTTTTTTTTTTTTTTTTTTTTTTT FDIK        TELAPSE       17.46 TCPU       17.13
 INSULATING STATE
 TOP OF VALENCE BANDS -    BAND     45; K    6; EIG -4.1354416E-01 AU
 TOP OF VALENCE BANDS -    BAND     45; K    1; EIG -4.1463966E-01 AU
 BOTTOM OF VIRTUAL BANDS - BAND     46; K    1; EIG -9.9460794E-02 AU
 INDIRECT ENERGY BAND GAP:   8.5466 eV
 TTTTTTTTTTTTTTTTTTTTTTTTTTTTTT PDIG        TELAPSE       17.46 TCPU       17.13
 CHARGE NORMALIZATION FACTOR   1.00000000
 TOTAL ATOMIC CHARGES:
   9.0490523   9.0685810   9.0685810   9.0728469   9.0728469   9.0692558
   9.0692558   9.0713977   9.0713977   0.4597115   0.4597115   0.4678210
   0.4678210   0.4685000   0.4685000   0.4659394   0.4659394   0.4718837
   0.4718837   0.4650024   0.4650024   0.4636035   0.4636035   0.4667074
   0.4667074   0.4642236   0.4642236
 TTTTTTTTTTTTTTTTTTTTTTTTTTTTTT MOQGAD      TELAPSE       17.47 TCPU       17.13
 TTTTTTTTTTTTTTTTTTTTTTTTTTTTTT SHELLXN     TELAPSE       26.86 TCPU       26.52
 TTTTTTTTTTTTTTTTTTTTTTTTTTTTTT MONMO3      TELAPSE       28.73 TCPU       28.39
 NUMERICALLY INTEGRATED DENSITY     89.9999839325
 TTTTTTTTTTTTTTTTTTTTTTTTTTTTTT NUMDFT      TELAPSE       30.03 TCPU       29.69
 CYC   1 ETOT(AU) -6.863895341971E+02 DETOT  3.43E-01 tst  0.00E+00 PX  1.00E+00
 TTTTTTTTTTTTTTTTTTTTTTTTTTTTTT DIIS        TELAPSE       30.04 TCPU       29.70
 DIIS TEST: 0.10071E+01 AT SCF   CYCLE   1 - MIX   30 %
 TTTTTTTTTTTTTTTTTTTTTTTTTTTTTT FDIK        TELAPSE       30.06 TCPU       29.72
 INSULATING STATE
 TOP OF VALENCE BANDS -    BAND     45; K    1; EIG -3.1569369E-01 AU
 BOTTOM OF VIRTUAL BANDS - BAND     46; K    1; EIG -3.7641786E-02 AU
 DIRECT ENERGY BAND GAP:   7.5662 eV
 TTTTTTTTTTTTTTTTTTTTTTTTTTTTTT PDIG        TELAPSE       30.06 TCPU       29.72
 CHARGE NORMALIZATION FACTOR   1.00000000
 TOTAL ATOMIC CHARGES:
   8.8350298   8.8421106   8.8421106   8.8356377   8.8356377   8.8453394
   8.8453394   8.8358120   8.8358120   0.5679365   0.5679365   0.5796089
   0.5796089   0.5804301   0.5804301   0.5812243   0.5812243   0.5921972
   0.5921972   0.5792152   0.5792152   0.5769385   0.5769385   0.5811455
   0.5811455   0.5848892   0.5848892
 TTTTTTTTTTTTTTTTTTTTTTTTTTTTTT MOQGAD      TELAPSE       30.07 TCPU       29.72
 TTTTTTTTTTTTTTTTTTTTTTTTTTTTTT SHELLXN     TELAPSE       39.45 TCPU       39.09
 TTTTTTTTTTTTTTTTTTTTTTTTTTTTTT MONMO3      TELAPSE       41.35 TCPU       41.00
 NUMERICALLY INTEGRATED DENSITY     89.9999810213
 TTTTTTTTTTTTTTTTTTTTTTTTTTTTTT NUMDFT      TELAPSE       42.62 TCPU       42.27
 CYC   2 ETOT(AU) -6.865903075568E+02 DETOT -2.01E-01 tst  2.85E-03 PX  1.29E-01
 TTTTTTTTTTTTTTTTTTTTTTTTTTTTTT DIIS        TELAPSE       42.94 TCPU       42.59
 DIIS TEST: 0.22967E+00 AT SCF   CYCLE   2 - DIIS ACTIVE - HISTORY:     2 CYCLES
 TTTTTTTTTTTTTTTTTTTTTTTTTTTTTT FDIK        TELAPSE       42.98 TCPU       42.60
 INSULATING STATE
 TOP OF VALENCE BANDS -    BAND     45; K    6; EIG -3.6502479E-01 AU
 TOP OF VALENCE BANDS -    BAND     45; K    1; EIG -3.6513187E-01 AU
 BOTTOM OF VIRTUAL BANDS - BAND     46; K    1; EIG -4.1807894E-02 AU
 INDIRECT ENERGY BAND GAP:   8.7952 eV
 TTTTTTTTTTTTTTTTTTTTTTTTTTTTTT PDIG        TELAPSE       42.98 TCPU       42.61
 CHARGE NORMALIZATION FACTOR   1.00000000
 TOTAL ATOMIC CHARGES:
   8.9051606   8.9193153   8.9193153   8.9186328   8.9186328   8.9220116
   8.9220116   8.9175203   8.9175203   0.5330310   0.5330310   0.5411052
   0.5411052   0.5408546   0.5408546   0.5413796   0.5413796   0.5496118
   0.5496118   0.5397880   0.5397880   0.5390909   0.5390909   0.5414656
   0.5414656   0.5436130   0.5436130
 TTTTTTTTTTTTTTTTTTTTTTTTTTTTTT MOQGAD      TELAPSE       42.98 TCPU       42.61
 TTTTTTTTTTTTTTTTTTTTTTTTTTTTTT SHELLXN     TELAPSE       52.37 TCPU       51.99
 TTTTTTTTTTTTTTTTTTTTTTTTTTTTTT MONMO3      TELAPSE       54.25 TCPU       53.86
 NUMERICALLY INTEGRATED DENSITY     89.9999819620
 TTTTTTTTTTTTTTTTTTTTTTTTTTTTTT NUMDFT      TELAPSE       55.51 TCPU       55.13
 CYC   3 ETOT(AU) -6.866512656191E+02 DETOT -6.10E-02 tst  3.37E-04 PX  4.92E-02
 TTTTTTTTTTTTTTTTTTTTTTTTTTTTTT DIIS        TELAPSE       55.52 TCPU       55.13
 DIIS TEST: 0.12014E-02 AT SCF   CYCLE   3 - DIIS ACTIVE - HISTORY:     3 CYCLES
 TTTTTTTTTTTTTTTTTTTTTTTTTTTTTT FDIK        TELAPSE       55.55 TCPU       55.15
 INSULATING STATE
 TOP OF VALENCE BANDS -    BAND     45; K    1; EIG -3.6169178E-01 AU
 BOTTOM OF VIRTUAL BANDS - BAND     46; K    1; EIG -3.8930026E-02 AU
 DIRECT ENERGY BAND GAP:   8.7828 eV
 TTTTTTTTTTTTTTTTTTTTTTTTTTTTTT PDIG        TELAPSE       55.55 TCPU       55.15
 CHARGE NORMALIZATION FACTOR   1.00000000
 TOTAL ATOMIC CHARGES:
   8.9047494   8.9171353   8.9171353   8.9122210   8.9122210   8.9199247
   8.9199247   8.9120418   8.9120418   0.5342339   0.5342339   0.5427888
   0.5427888   0.5418636   0.5418636   0.5442268   0.5442268   0.5522088
   0.5522088   0.5408781   0.5408781   0.5405742   0.5405742   0.5436990
   0.5436990   0.5458291   0.5458291
 TTTTTTTTTTTTTTTTTTTTTTTTTTTTTT MOQGAD      TELAPSE       55.55 TCPU       55.15
 TTTTTTTTTTTTTTTTTTTTTTTTTTTTTT SHELLXN     TELAPSE       64.93 TCPU       64.52
 TTTTTTTTTTTTTTTTTTTTTTTTTTTTTT MONMO3      TELAPSE       66.84 TCPU       66.44
 NUMERICALLY INTEGRATED DENSITY     89.9999819124
 TTTTTTTTTTTTTTTTTTTTTTTTTTTTTT NUMDFT      TELAPSE       68.11 TCPU       67.71
 CYC   4 ETOT(AU) -6.866514721946E+02 DETOT -2.07E-04 tst  1.36E-06 PX  3.17E-03
 TTTTTTTTTTTTTTTTTTTTTTTTTTTTTT DIIS        TELAPSE       68.12 TCPU       67.71
 DIIS TEST: 0.53472E-04 AT SCF   CYCLE   4 - DIIS ACTIVE - HISTORY:     4 CYCLES
 TTTTTTTTTTTTTTTTTTTTTTTTTTTTTT FDIK        TELAPSE       68.58 TCPU       67.72
 INSULATING STATE
 TOP OF VALENCE BANDS -    BAND     45; K    6; EIG -3.6200690E-01 AU
 TOP OF VALENCE BANDS -    BAND     45; K    1; EIG -3.6204134E-01 AU
 BOTTOM OF VIRTUAL BANDS - BAND     46; K    1; EIG -3.8560441E-02 AU
 INDIRECT ENERGY BAND GAP:   8.8014 eV
 TTTTTTTTTTTTTTTTTTTTTTTTTTTTTT PDIG        TELAPSE       68.60 TCPU       67.74
 CHARGE NORMALIZATION FACTOR   1.00000000
 TOTAL ATOMIC CHARGES:
   8.9014280   8.9156856   8.9156856   8.9147936   8.9147936   8.9182715
   8.9182715   8.9137027   8.9137027   0.5350882   0.5350882   0.5429830
   0.5429830   0.5426788   0.5426788   0.5434477   0.5434477   0.5513831
   0.5513831   0.5415581   0.5415581   0.5409291   0.5409291   0.5433179
   0.5433179   0.5454467   0.5454467
 TTTTTTTTTTTTTTTTTTTTTTTTTTTTTT MOQGAD      TELAPSE       68.60 TCPU       67.75
 TTTTTTTTTTTTTTTTTTTTTTTTTTTTTT SHELLXN     TELAPSE       78.00 TCPU       77.14
 TTTTTTTTTTTTTTTTTTTTTTTTTTTTTT MONMO3      TELAPSE       79.85 TCPU       78.99
 NUMERICALLY INTEGRATED DENSITY     89.9999818976
 TTTTTTTTTTTTTTTTTTTTTTTTTTTTTT NUMDFT      TELAPSE       81.12 TCPU       80.25
 CYC   5 ETOT(AU) -6.866514752781E+02 DETOT -3.08E-06 tst  2.29E-07 PX  1.66E-03
 TTTTTTTTTTTTTTTTTTTTTTTTTTTTTT DIIS        TELAPSE       90.11 TCPU       89.24
 DIIS TEST: 0.37533E-04 AT SCF   CYCLE   5 - DIIS ACTIVE - HISTORY:     5 CYCLES
 TTTTTTTTTTTTTTTTTTTTTTTTTTTTTT FDIK        TELAPSE       90.13 TCPU       89.25
 INSULATING STATE
 TOP OF VALENCE BANDS -    BAND     45; K    1; EIG -3.6181804E-01 AU
 BOTTOM OF VIRTUAL BANDS - BAND     46; K    1; EIG -3.8540720E-02 AU
 DIRECT ENERGY BAND GAP:   8.7968 eV
 TTTTTTTTTTTTTTTTTTTTTTTTTTTTTT PDIG        TELAPSE       90.13 TCPU       89.25
 CHARGE NORMALIZATION FACTOR   1.00000000
 TOTAL ATOMIC CHARGES:
   8.9031157   8.9163808   8.9163808   8.9133412   8.9133412   8.9191172
   8.9191172   8.9127605   8.9127605   0.5346256   0.5346256   0.5428599
   0.5428599   0.5423433   0.5423433   0.5438673   0.5438673   0.5519084
   0.5519084   0.5412668   0.5412668   0.5407167   0.5407167   0.5435565
   0.5435565   0.5456979   0.5456979
 TTTTTTTTTTTTTTTTTTTTTTTTTTTTTT MOQGAD      TELAPSE       90.13 TCPU       89.25
 TTTTTTTTTTTTTTTTTTTTTTTTTTTTTT SHELLXN     TELAPSE       99.52 TCPU       98.63
 TTTTTTTTTTTTTTTTTTTTTTTTTTTTTT MONMO3      TELAPSE      101.41 TCPU      100.53
 NUMERICALLY INTEGRATED DENSITY     89.9999819036
 TTTTTTTTTTTTTTTTTTTTTTTTTTTTTT NUMDFT      TELAPSE      102.69 TCPU      101.80
 CYC   6 ETOT(AU) -6.866514848546E+02 DETOT -9.58E-06 tst  4.48E-08 PX  8.32E-04
 TTTTTTTTTTTTTTTTTTTTTTTTTTTTTT DIIS        TELAPSE      102.69 TCPU      101.81
 DIIS TEST: 0.67075E-06 AT SCF   CYCLE   6 - DIIS ACTIVE - HISTORY:     6 CYCLES
 TTTTTTTTTTTTTTTTTTTTTTTTTTTTTT FDIK        TELAPSE      102.71 TCPU      101.82
 INSULATING STATE
 TOP OF VALENCE BANDS -    BAND     45; K    1; EIG -3.6180386E-01 AU
 BOTTOM OF VIRTUAL BANDS - BAND     46; K    1; EIG -3.8526699E-02 AU
 DIRECT ENERGY BAND GAP:   8.7968 eV
 TTTTTTTTTTTTTTTTTTTTTTTTTTTTTT PDIG        TELAPSE      102.71 TCPU      101.82
 CHARGE NORMALIZATION FACTOR   1.00000000
 TOTAL ATOMIC CHARGES:
   8.9030660   8.9163293   8.9163293   8.9133634   8.9133634   8.9189932
   8.9189932   8.9127616   8.9127616   0.5346546   0.5346546   0.5428965
   0.5428965   0.5423541   0.5423541   0.5438770   0.5438770   0.5519002
   0.5519002   0.5412946   0.5412946   0.5407728   0.5407728   0.5435705
   0.5435705   0.5456990   0.5456990
 TTTTTTTTTTTTTTTTTTTTTTTTTTTTTT MOQGAD      TELAPSE      102.72 TCPU      101.83
 TTTTTTTTTTTTTTTTTTTTTTTTTTTTTT SHELLXN     TELAPSE      112.11 TCPU      111.20
 TTTTTTTTTTTTTTTTTTTTTTTTTTTTTT MONMO3      TELAPSE      114.00 TCPU      113.09
 NUMERICALLY INTEGRATED DENSITY     89.9999819028
 TTTTTTTTTTTTTTTTTTTTTTTTTTTTTT NUMDFT      TELAPSE      115.26 TCPU      114.36
 CYC   7 ETOT(AU) -6.866514848831E+02 DETOT -2.85E-08 tst  3.72E-10 PX  6.52E-05
 TTTTTTTTTTTTTTTTTTTTTTTTTTTTTT DIIS        TELAPSE      115.27 TCPU      114.36
 DIIS TEST: 0.14029E-07 AT SCF   CYCLE   7 - DIIS ACTIVE - HISTORY:     7 CYCLES
 TTTTTTTTTTTTTTTTTTTTTTTTTTTTTT FDIK        TELAPSE      115.29 TCPU      114.37
 INSULATING STATE
 TOP OF VALENCE BANDS -    BAND     45; K    1; EIG -3.6180840E-01 AU
 BOTTOM OF VIRTUAL BANDS - BAND     46; K    1; EIG -3.8527503E-02 AU
 DIRECT ENERGY BAND GAP:   8.7969 eV
 TTTTTTTTTTTTTTTTTTTTTTTTTTTTTT PDIG        TELAPSE      115.29 TCPU      114.38
 CHARGE NORMALIZATION FACTOR   1.00000000
 TOTAL ATOMIC CHARGES:
   8.9030035   8.9163060   8.9163060   8.9133475   8.9133475   8.9190550
   8.9190550   8.9127529   8.9127529   0.5346736   0.5346736   0.5428991
   0.5428991   0.5423703   0.5423703   0.5438786   0.5438786   0.5519072
   0.5519072   0.5412854   0.5412854   0.5407486   0.5407486   0.5435701
   0.5435701   0.5457040   0.5457040
 TTTTTTTTTTTTTTTTTTTTTTTTTTTTTT MOQGAD      TELAPSE      115.29 TCPU      114.38
 TTTTTTTTTTTTTTTTTTTTTTTTTTTTTT SHELLXN     TELAPSE      124.69 TCPU      123.77
 +++ ENERGIES IN A.U. +++
 ::: EXT EL-POLE                                  -7.6701840509435E+02
 ::: EXT EL-SPHEROPOLE                             9.3259421891796E+00
 ::: BIELET ZONE E-E                               9.3809126309302E+02
 ::: TOTAL E-E                                     1.8039880018785E+02
 ::: TOTAL E-N + N-E                              -1.3550552257384E+03
 ::: TOTAL N-N                                    -1.4276384600832E+02
 ::: KINETIC ENERGY                                6.8222438652391E+02
 ::: PSEUDO TOTAL   ENERGY                        -6.3519588503494E+02
 ::: VIRIAL COEFFICIENT                            1.0356974175244E+00
 TTTTTTTTTTTTTTTTTTTTTTTTTTTTTT MONMO3      TELAPSE      126.55 TCPU      125.62
 NUMERICALLY INTEGRATED DENSITY     89.9999819026
 TTTTTTTTTTTTTTTTTTTTTTTTTTTTTT NUMDFT      TELAPSE      127.82 TCPU      126.89
 CYC   8 ETOT(AU) -6.866514848841E+02 DETOT -9.99E-10 tst  6.90E-11 PX  6.52E-05

 == SCF ENDED - CONVERGENCE ON ENERGY      E(AU) -6.8665148488412E+02 CYCLES   8


 ENERGY EXPRESSION=HARTREE+FOCK EXCH*0.00000+(HSE-3c     EXCH)*1.00000+PBEh-3c    CORR


 TOTAL ENERGY(DFT)(AU)(  8) -6.8665148488412E+02 DE-1.0E-09 tester 6.9E-11
 TTTTTTTTTTTTTTTTTTTTTTTTTTTTTT EDFT        TELAPSE      127.82 TCPU      126.89
 
 INFORMATION **** DFTD3 ENERGY **** CALCULATE DFTD3 ENERGY

           DFT-D V3(BJ)
 DF                                         hse3c     
 parameters
 s6       :    1.0000
 s8       :    0.0000
 a1       :    0.4411
 a2       :    4.5182
 k1 k3    :   16.0000   -4.0000
 Cutoff   :   50.2022
 CN-Cutoff:   21.1671
 
 Edisp /kcal,au:   -18.7396 -0.02986349

 E6    /kcal :   -20.1950
 E8    /kcal :     0.0000
 E6(ABC) "   :   1.455368
 
 INFORMATION **** DFTD3 ENERGY **** NORMAL TERMINATION OF DFTD3 MODULE

 GCP ENERGY CALCULATION
  level           hse3c               basis:hse3c
  Nbf            171
  Atoms           27

  Parameters: 
  sigma     1.0000
  eta       1.4086
  alpha     0.2908
  beta      1.9526

  dmp_scal      4.0000
  dmp_exp       6.0000
 cutoffs: 
   distance [bohr] 60.0
   noise    [a.u.] 2.2E-16
 SR-damping   T
 ** gCP correction **
  Egcp:        0.1144854256 / (a.u.) ||      71.8407 / (kcal/mol)
 INFORMATION **** GCP **** NORMAL TERMINATION OF GCP MODULE

 *******************************************************************************

 DFT-D3-GCP DISPERSION AND COUNTERPOISE CORRECTION

 D3 DISPERSION ENERGY (AU)      -2.9863492610003E-02
 GCP ENERGY (AU)                 1.1448542559470E-01
 TOTAL ENERGY + DISP + GCP (AU) -6.8656686295114E+02

 *******************************************************************************

 EIGENVECTORS IN FORTRAN UNIT  8
 TTTTTTTTTTTTTTTTTTTTTTTTTTTTTT END         TELAPSE      128.76 TCPU      127.82
 EEEEEEEEEE TERMINATION  DATE 25 03 2019 TIME 17:48:33.0
NODE    0 CPU TIME =       127.824
NODE    1 CPU TIME =       128.413
NODE    2 CPU TIME =       128.450
NODE    3 CPU TIME =       128.404
NODE    4 CPU TIME =       128.195
NODE    5 CPU TIME =       128.439
NODE    6 CPU TIME =       128.375
NODE    7 CPU TIME =       119.018
    TOTAL CPU TIME =      1017.117
