 PROCESS            7  OF            8  WORKING
 PROCESS            0  OF            8  WORKING
 PROCESS            6  OF            8  WORKING
 PROCESS            4  OF            8  WORKING
 PROCESS            2  OF            8  WORKING
 PROCESS            3  OF            8  WORKING
 PROCESS            1  OF            8  WORKING
 PROCESS            5  OF            8  WORKING

         
 *******************************************************************************
 *                                                                             *
 *                               CRYSTAL17                                     *
 *                      public : 1.0.1 - Feb 1st, 2017                         *
 *                       HTTP://WWW.CRYSTAL.UNITO.IT                           *
 *                                                                             *
 *                              MAIN AUTHORS                                   *
 *                                                                             *
 *  R. DOVESI(1,11), V.R. SAUNDERS(2), C. ROETTI(1,11), R. ORLANDO(1,11),      *
 *  C.M. ZICOVICH-WILSON(1,3), F. PASCALE(4), B. CIVALLERI(1,11),              *
 *  K. DOLL(5), N.M. HARRISON(2,6), I.J. BUSH(7), Ph. D'ARCO(8),               *
 *  M. LLUNELL(9), M. CAUSA'(10), Y. NOEL(8), L. MASCHIO(1,11), A. ERBA(1,11)  *
 *  M. RE'RAT(14), S. CASASSA(1,11)                                            *
 *                                                                             *
 *        CONTRIBUTIONS TO THE CODE HAVE ALSO BEEN GIVEN BY                    *
 *                                                                             *
 *  M. FERRABONE(1,11), M. DE LA PIERRE(1,11), M. FERRERO(1,11),               *
 *  J. BAIMA(1,11), E. ALBANESE(1,11), M.F. PEINTINGER(12), R. BAST(13),       *
 *  B. KIRTMAN(15), V. LACIVITA(1,11), R. DEMICHELIS(1,16)                     *
 *  G. BRANDEBURG(17), S. SALUSTRO(1,11), G. SANSONE(1,11)                     *
 *  M.T. RUGGIERO(18)                                                          *
 *                                                                             *
 * (1) THEORETICAL CHEMISTRY GROUP - UNIVERSITA' DI TORINO - TORINO (ITALY)    *

 * (2) COMPUTATIONAL SCIENCE & ENGINEERING DEPARTMENT - STFC DARESBURY (UK)    *
 * (3) UNIVERSIDAD AUTONOMA DEL ESTADO DE MORELOS - CUERNAVACA (MEXICO)        *
 * (4) UNIVERSITE' DE LORRAINE - NANCY (FRANCE)                                *
 * (5) UNIVERSITAET STUTTGART- STUTTGART (GERMANY)                             *
 * (6) IMPERIAL COLLEGE - LONDON (UK)                                          *
 * (7) OXFORD E-RESEARCH CENTRE - OXFORD (UK)                                  *
 * (8) UPMC - SORBONNE UNIVERSITES - PARIS (FRANCE)                            *
 * (9) UNIVERSIDAD DE BARCELONA - BARCELONA (SPAIN)                            *
 *(10) UNIVERSITA' DI NAPOLI "FEDERICO II" - NAPOLI (ITALY)                    *
 *(11) NIS - NANOSTRUCTURED INTERFACES AND SURFACES - TORINO (ITALY)           *
 *(12) MPI FUER CHEMISCHE ENERGIEKONVERSION - MUELHEIM AN DER RUHR (GERMANY)   *
 *(13) UNIVERSITY OF TROMSO - TROMSO (NORWAY)                                  *
 *(14) UNIVERSITE' DE PAU ET DES PAYS DE L'ADOUR - PAU (FRANCE)                *
 *(15) UNIVERSITY OF CALIFORNIA SANTA BARBARA - SANTA BARBARA (USA)            *
 *(16) CURTIN UNIVERSITY - PERTH (AUSTRALIA)                                   *
 *(17) UNIVERSITY COLLEGE LONDON - LONDON (UK)                                 *
 *(18) CAMBRIDGE UNIVERSITY - CAMBRIDGE (UK)                                   *
 *                                                                             *
 *******************************************************************************
 EEEEEEEEEE STARTING  DATE 25 03 2019 TIME 17:52:40.9
 !drive by JGB                                                                   

 CRYSTAL CALCULATION
 (INPUT ACCORDING TO THE INTERNATIONAL TABLES FOR X-RAY CRYSTALLOGRAPHY)
 CRYSTAL FAMILY                       :  MONOCLINIC  
 CRYSTAL CLASS  (GROTH - 1921)        :  MONOCLINIC PRISMATIC                 

 SPACE GROUP (CENTROSYMMETRIC)        :  P 21/C          

 LATTICE PARAMETERS  (ANGSTROMS AND DEGREES) - CONVENTIONAL CELL
        A           B           C        ALPHA        BETA       GAMMA
    10.08505     7.44443     9.03246    90.00000   108.75039    90.00000


 NUMBER OF IRREDUCIBLE ATOMS IN THE CONVENTIONAL CELL:   21

 INPUT COORDINATES

 ATOM AT. N.              COORDINATES
   1   8     2.455381555967E-01  4.355539842602E-01  7.409396045833E-01
   2   8     9.767576241623E-02  1.919625117392E-01  5.343061774436E-01
   3   8     5.954280747337E-01  6.911696563884E-01  5.507435331588E-01
   4   8     9.983198495492E-01  5.987751763038E-01  7.241570721534E-01
   5   8     5.030128611994E-01  9.536991404636E-02  7.076050501474E-01
   6   8     7.315818407496E-01  3.863432734807E-01  9.115109681995E-01
   7   8     7.656370020140E-01  3.928652049154E-01  6.176484585370E-01
   8   1     2.034049482581E-01  3.506666583304E-01  6.552260246997E-01
   9   1     1.655715126704E-01  5.059702817692E-01  7.480261649574E-01
  10   1     1.495100687894E-01  8.387414207539E-02  5.258802857285E-01
  11   1     5.555855861864E-02  2.456898545790E-01  4.304772604027E-01
  12   1     6.599725521333E-01  7.820816479024E-01  6.125572971898E-01
  13   1     5.473207164888E-01  7.500000000000E-01  4.508176849417E-01
  14   1     9.835120956229E-01  6.412414630806E-01  8.201629132879E-01
  15   1     9.228822037219E-01  5.104550364262E-01  6.815535292278E-01
  16   1     5.974762773022E-01  4.368890406352E-02  7.354792662929E-01
  17   1     4.869467090483E-01  1.326722194034E-01  8.042407036152E-01
  18   1     7.486110744656E-01  3.595583165019E-01  8.131578336404E-01
  19   1     6.399770786369E-01  4.459836597098E-01  8.782305146689E-01
  20   1     6.972399908698E-01  4.874397337343E-01  5.725304806874E-01
  21   1     7.513698097162E-01  2.956557958814E-01  5.406819596321E-01

 *******************************************************************************

 << INFORMATION >>: FROM NOW ON, ALL COORDINATES REFER TO THE PRIMITIVE CELL

 *******************************************************************************

 LATTICE PARAMETERS  (ANGSTROMS AND DEGREES) - PRIMITIVE CELL
       A          B          C        ALPHA      BETA     GAMMA        VOLUME
   10.08505    7.44443    9.03246    90.00000 108.75039  90.00000    642.144266

 COORDINATES OF THE EQUIVALENT ATOMS (FRACTIONAL UNITS)

 N. ATOM EQUIV AT. N.          X                  Y                  Z

   1   1   1    8 O     2.45538155597E-01  4.35553984260E-01 -2.59060395417E-01
   2   1   2    8 O    -2.45538155597E-01 -6.44460157398E-02 -2.40939604583E-01
   3   1   3    8 O    -2.45538155597E-01 -4.35553984260E-01  2.59060395417E-01
   4   1   4    8 O     2.45538155597E-01  6.44460157398E-02  2.40939604583E-01

   5   2   1    8 O     9.76757624162E-02  1.91962511739E-01 -4.65693822556E-01
   6   2   2    8 O    -9.76757624162E-02 -3.08037488261E-01 -3.43061774436E-02
   7   2   3    8 O    -9.76757624162E-02 -1.91962511739E-01  4.65693822556E-01
   8   2   4    8 O     9.76757624162E-02  3.08037488261E-01  3.43061774436E-02

   9   3   1    8 O    -4.04571925266E-01 -3.08830343612E-01 -4.49256466841E-01
  10   3   2    8 O     4.04571925266E-01  1.91169656388E-01 -5.07435331588E-02
  11   3   3    8 O     4.04571925266E-01  3.08830343612E-01  4.49256466841E-01
  12   3   4    8 O    -4.04571925266E-01 -1.91169656388E-01  5.07435331588E-02

  13   4   1    8 O    -1.68015045075E-03 -4.01224823696E-01 -2.75842927847E-01
  14   4   2    8 O     1.68015045075E-03  9.87751763038E-02 -2.24157072153E-01
  15   4   3    8 O     1.68015045075E-03  4.01224823696E-01  2.75842927847E-01
  16   4   4    8 O    -1.68015045075E-03 -9.87751763038E-02  2.24157072153E-01

  17   5   1    8 O    -4.96987138801E-01  9.53699140464E-02 -2.92394949853E-01
  18   5   2    8 O     4.96987138801E-01 -4.04630085954E-01 -2.07605050147E-01
  19   5   3    8 O     4.96987138801E-01 -9.53699140464E-02  2.92394949853E-01
  20   5   4    8 O    -4.96987138801E-01  4.04630085954E-01  2.07605050147E-01

  21   6   1    8 O    -2.68418159250E-01  3.86343273481E-01 -8.84890318005E-02
  22   6   2    8 O     2.68418159250E-01 -1.13656726519E-01 -4.11510968200E-01
  23   6   3    8 O     2.68418159250E-01 -3.86343273481E-01  8.84890318005E-02
  24   6   4    8 O    -2.68418159250E-01  1.13656726519E-01  4.11510968200E-01

  25   7   1    8 O    -2.34362997986E-01  3.92865204915E-01 -3.82351541463E-01
  26   7   2    8 O     2.34362997986E-01 -1.07134795085E-01 -1.17648458537E-01
  27   7   3    8 O     2.34362997986E-01 -3.92865204915E-01  3.82351541463E-01
  28   7   4    8 O    -2.34362997986E-01  1.07134795085E-01  1.17648458537E-01

  29   8   1    1 H     2.03404948258E-01  3.50666658330E-01 -3.44773975300E-01
  30   8   2    1 H    -2.03404948258E-01 -1.49333341670E-01 -1.55226024700E-01
  31   8   3    1 H    -2.03404948258E-01 -3.50666658330E-01  3.44773975300E-01
  32   8   4    1 H     2.03404948258E-01  1.49333341670E-01  1.55226024700E-01

  33   9   1    1 H     1.65571512670E-01 -4.94029718231E-01 -2.51973835043E-01
  34   9   2    1 H    -1.65571512670E-01  5.97028176920E-03 -2.48026164957E-01
  35   9   3    1 H    -1.65571512670E-01  4.94029718231E-01  2.51973835043E-01
  36   9   4    1 H     1.65571512670E-01 -5.97028176920E-03  2.48026164957E-01

  37  10   1    1 H     1.49510068789E-01  8.38741420754E-02 -4.74119714272E-01
  38  10   2    1 H    -1.49510068789E-01 -4.16125857925E-01 -2.58802857285E-02
  39  10   3    1 H    -1.49510068789E-01 -8.38741420754E-02  4.74119714272E-01
  40  10   4    1 H     1.49510068789E-01  4.16125857925E-01  2.58802857285E-02

  41  11   1    1 H     5.55585586186E-02  2.45689854579E-01  4.30477260403E-01
  42  11   2    1 H    -5.55585586186E-02 -2.54310145421E-01  6.95227395973E-02
  43  11   3    1 H    -5.55585586186E-02 -2.45689854579E-01 -4.30477260403E-01
  44  11   4    1 H     5.55585586186E-02  2.54310145421E-01 -6.95227395973E-02

  45  12   1    1 H    -3.40027447867E-01 -2.17918352098E-01 -3.87442702810E-01
  46  12   2    1 H     3.40027447867E-01  2.82081647902E-01 -1.12557297190E-01
  47  12   3    1 H     3.40027447867E-01  2.17918352098E-01  3.87442702810E-01
  48  12   4    1 H    -3.40027447867E-01 -2.82081647902E-01  1.12557297190E-01

  49  13   1    1 H    -4.52679283511E-01 -2.50000000000E-01  4.50817684942E-01
  50  13   2    1 H     4.52679283511E-01  2.50000000000E-01  4.91823150583E-02
  51  13   3    1 H     4.52679283511E-01  2.50000000000E-01 -4.50817684942E-01
  52  13   4    1 H    -4.52679283511E-01 -2.50000000000E-01 -4.91823150583E-02

  53  14   1    1 H    -1.64879043771E-02 -3.58758536919E-01 -1.79837086712E-01
  54  14   2    1 H     1.64879043771E-02  1.41241463081E-01 -3.20162913288E-01
  55  14   3    1 H     1.64879043771E-02  3.58758536919E-01  1.79837086712E-01
  56  14   4    1 H    -1.64879043771E-02 -1.41241463081E-01  3.20162913288E-01

  57  15   1    1 H    -7.71177962781E-02 -4.89544963574E-01 -3.18446470772E-01
  58  15   2    1 H     7.71177962781E-02  1.04550364262E-02 -1.81553529228E-01
  59  15   3    1 H     7.71177962781E-02  4.89544963574E-01  3.18446470772E-01
  60  15   4    1 H    -7.71177962781E-02 -1.04550364262E-02  1.81553529228E-01

  61  16   1    1 H    -4.02523722698E-01  4.36889040635E-02 -2.64520733707E-01
  62  16   2    1 H     4.02523722698E-01 -4.56311095936E-01 -2.35479266293E-01
  63  16   3    1 H     4.02523722698E-01 -4.36889040635E-02  2.64520733707E-01
  64  16   4    1 H    -4.02523722698E-01  4.56311095936E-01  2.35479266293E-01

  65  17   1    1 H     4.86946709048E-01  1.32672219403E-01 -1.95759296385E-01
  66  17   2    1 H    -4.86946709048E-01 -3.67327780597E-01 -3.04240703615E-01
  67  17   3    1 H    -4.86946709048E-01 -1.32672219403E-01  1.95759296385E-01
  68  17   4    1 H     4.86946709048E-01  3.67327780597E-01  3.04240703615E-01

  69  18   1    1 H    -2.51388925534E-01  3.59558316502E-01 -1.86842166360E-01
  70  18   2    1 H     2.51388925534E-01 -1.40441683498E-01 -3.13157833640E-01
  71  18   3    1 H     2.51388925534E-01 -3.59558316502E-01  1.86842166360E-01
  72  18   4    1 H    -2.51388925534E-01  1.40441683498E-01  3.13157833640E-01

  73  19   1    1 H    -3.60022921363E-01  4.45983659710E-01 -1.21769485331E-01
  74  19   2    1 H     3.60022921363E-01 -5.40163402902E-02 -3.78230514669E-01
  75  19   3    1 H     3.60022921363E-01 -4.45983659710E-01  1.21769485331E-01
  76  19   4    1 H    -3.60022921363E-01  5.40163402902E-02  3.78230514669E-01

  77  20   1    1 H    -3.02760009130E-01  4.87439733734E-01 -4.27469519313E-01
  78  20   2    1 H     3.02760009130E-01 -1.25602662657E-02 -7.25304806874E-02
  79  20   3    1 H     3.02760009130E-01 -4.87439733734E-01  4.27469519313E-01
  80  20   4    1 H    -3.02760009130E-01  1.25602662657E-02  7.25304806874E-02

  81  21   1    1 H    -2.48630190284E-01  2.95655795881E-01 -4.59318040368E-01
  82  21   2    1 H     2.48630190284E-01 -2.04344204119E-01 -4.06819596321E-02
  83  21   3    1 H     2.48630190284E-01 -2.95655795881E-01  4.59318040368E-01
  84  21   4    1 H    -2.48630190284E-01  2.04344204119E-01  4.06819596321E-02

 NUMBER OF SYMMETRY OPERATORS         :    4
 *******************************************************************************
 * GEOMETRY EDITING - INPUT COORDINATES ARE GIVEN IN ANGSTROM         
 *******************************************************************************

 GEOMETRY NOW FULLY CONSISTENT WITH THE GROUP

 GCALCO - MAX INDICES DIRECT LATTICE VECTOR    13    17    14
 NO.OF VECTORS CREATED 6999 STARS 1852 RMAX   193.58992 BOHR

 GEOMETRY FOR WAVE FUNCTION - DIMENSIONALITY OF THE SYSTEM    3
 (NON PERIODIC DIRECTION: LATTICE PARAMETER FORMALLY SET TO 500)
 *******************************************************************************
 LATTICE PARAMETERS (ANGSTROMS AND DEGREES) - BOHR = 0.5291772083 ANGSTROM
 PRIMITIVE CELL - CENTRING CODE 1/0 VOLUME=   642.144266 - DENSITY  1.304 g/cm^3
         A              B              C           ALPHA      BETA       GAMMA 
    10.08505293     7.44443084     9.03245893    90.000000 108.750390  90.000000
 *******************************************************************************
 ATOMS IN THE ASYMMETRIC UNIT   21 - ATOMS IN THE UNIT CELL:   84
     ATOM                 X/A                 Y/B                 Z/C    
 *******************************************************************************
      1 T   8 O     2.455381555967E-01  4.355539842602E-01 -2.590603954167E-01
      2 F   8 O    -2.455381555967E-01 -6.444601573980E-02 -2.409396045833E-01
      3 F   8 O    -2.455381555967E-01 -4.355539842602E-01  2.590603954167E-01
      4 F   8 O     2.455381555967E-01  6.444601573980E-02  2.409396045833E-01
      5 T   8 O     9.767576241623E-02  1.919625117392E-01 -4.656938225564E-01
      6 F   8 O    -9.767576241623E-02 -3.080374882608E-01 -3.430617744360E-02
      7 F   8 O    -9.767576241623E-02 -1.919625117392E-01  4.656938225564E-01
      8 F   8 O     9.767576241623E-02  3.080374882608E-01  3.430617744360E-02
      9 T   8 O    -4.045719252663E-01 -3.088303436116E-01 -4.492564668412E-01
     10 F   8 O     4.045719252663E-01  1.911696563884E-01 -5.074353315880E-02
     11 F   8 O     4.045719252663E-01  3.088303436116E-01  4.492564668412E-01
     12 F   8 O    -4.045719252663E-01 -1.911696563884E-01  5.074353315880E-02
     13 T   8 O    -1.680150450751E-03 -4.012248236962E-01 -2.758429278466E-01
     14 F   8 O     1.680150450751E-03  9.877517630380E-02 -2.241570721534E-01
     15 F   8 O     1.680150450751E-03  4.012248236962E-01  2.758429278466E-01
     16 F   8 O    -1.680150450751E-03 -9.877517630380E-02  2.241570721534E-01
     17 T   8 O    -4.969871388006E-01  9.536991404636E-02 -2.923949498526E-01
     18 F   8 O     4.969871388006E-01 -4.046300859536E-01 -2.076050501474E-01
     19 F   8 O     4.969871388006E-01 -9.536991404636E-02  2.923949498526E-01
     20 F   8 O    -4.969871388006E-01  4.046300859536E-01  2.076050501474E-01
     21 T   8 O    -2.684181592504E-01  3.863432734807E-01 -8.848903180049E-02
     22 F   8 O     2.684181592504E-01 -1.136567265193E-01 -4.115109681995E-01
     23 F   8 O     2.684181592504E-01 -3.863432734807E-01  8.848903180049E-02
     24 F   8 O    -2.684181592504E-01  1.136567265193E-01  4.115109681995E-01
     25 T   8 O    -2.343629979860E-01  3.928652049154E-01 -3.823515414630E-01
     26 F   8 O     2.343629979860E-01 -1.071347950846E-01 -1.176484585370E-01
     27 F   8 O     2.343629979860E-01 -3.928652049154E-01  3.823515414630E-01
     28 F   8 O    -2.343629979860E-01  1.071347950846E-01  1.176484585370E-01
     29 T   1 H     2.034049482581E-01  3.506666583304E-01 -3.447739753003E-01
     30 F   1 H    -2.034049482581E-01 -1.493333416696E-01 -1.552260246997E-01
     31 F   1 H    -2.034049482581E-01 -3.506666583304E-01  3.447739753003E-01
     32 F   1 H     2.034049482581E-01  1.493333416696E-01  1.552260246997E-01
     33 T   1 H     1.655715126704E-01 -4.940297182308E-01 -2.519738350426E-01
     34 F   1 H    -1.655715126704E-01  5.970281769200E-03 -2.480261649574E-01
     35 F   1 H    -1.655715126704E-01  4.940297182308E-01  2.519738350426E-01
     36 F   1 H     1.655715126704E-01 -5.970281769200E-03  2.480261649574E-01
     37 T   1 H     1.495100687894E-01  8.387414207539E-02 -4.741197142715E-01
     38 F   1 H    -1.495100687894E-01 -4.161258579246E-01 -2.588028572850E-02
     39 F   1 H    -1.495100687894E-01 -8.387414207539E-02  4.741197142715E-01
     40 F   1 H     1.495100687894E-01  4.161258579246E-01  2.588028572850E-02
     41 T   1 H     5.555855861864E-02  2.456898545790E-01  4.304772604027E-01
     42 F   1 H    -5.555855861864E-02 -2.543101454210E-01  6.952273959730E-02
     43 F   1 H    -5.555855861864E-02 -2.456898545790E-01 -4.304772604027E-01
     44 F   1 H     5.555855861864E-02  2.543101454210E-01 -6.952273959730E-02
     45 T   1 H    -3.400274478667E-01 -2.179183520976E-01 -3.874427028102E-01
     46 F   1 H     3.400274478667E-01  2.820816479024E-01 -1.125572971898E-01
     47 F   1 H     3.400274478667E-01  2.179183520976E-01  3.874427028102E-01
     48 F   1 H    -3.400274478667E-01 -2.820816479024E-01  1.125572971898E-01
     49 T   1 H    -4.526792835112E-01 -2.500000000000E-01  4.508176849417E-01
     50 F   1 H     4.526792835112E-01  2.500000000000E-01  4.918231505830E-02
     51 F   1 H     4.526792835112E-01  2.500000000000E-01 -4.508176849417E-01
     52 F   1 H    -4.526792835112E-01 -2.500000000000E-01 -4.918231505830E-02
     53 T   1 H    -1.648790437709E-02 -3.587585369194E-01 -1.798370867121E-01
     54 F   1 H     1.648790437709E-02  1.412414630806E-01 -3.201629132879E-01
     55 F   1 H     1.648790437709E-02  3.587585369194E-01  1.798370867121E-01
     56 F   1 H    -1.648790437709E-02 -1.412414630806E-01  3.201629132879E-01
     57 T   1 H    -7.711779627805E-02 -4.895449635738E-01 -3.184464707722E-01
     58 F   1 H     7.711779627805E-02  1.045503642620E-02 -1.815535292278E-01
     59 F   1 H     7.711779627805E-02  4.895449635738E-01  3.184464707722E-01
     60 F   1 H    -7.711779627805E-02 -1.045503642620E-02  1.815535292278E-01
     61 T   1 H    -4.025237226978E-01  4.368890406352E-02 -2.645207337071E-01
     62 F   1 H     4.025237226978E-01 -4.563110959365E-01 -2.354792662929E-01
     63 F   1 H     4.025237226978E-01 -4.368890406352E-02  2.645207337071E-01
     64 F   1 H    -4.025237226978E-01  4.563110959365E-01  2.354792662929E-01
     65 T   1 H     4.869467090483E-01  1.326722194034E-01 -1.957592963848E-01
     66 F   1 H    -4.869467090483E-01 -3.673277805966E-01 -3.042407036152E-01
     67 F   1 H    -4.869467090483E-01 -1.326722194034E-01  1.957592963848E-01
     68 F   1 H     4.869467090483E-01  3.673277805966E-01  3.042407036152E-01
     69 T   1 H    -2.513889255344E-01  3.595583165019E-01 -1.868421663596E-01
     70 F   1 H     2.513889255344E-01 -1.404416834981E-01 -3.131578336404E-01
     71 F   1 H     2.513889255344E-01 -3.595583165019E-01  1.868421663596E-01
     72 F   1 H    -2.513889255344E-01  1.404416834981E-01  3.131578336404E-01
     73 T   1 H    -3.600229213631E-01  4.459836597098E-01 -1.217694853311E-01
     74 F   1 H     3.600229213631E-01 -5.401634029020E-02 -3.782305146689E-01
     75 F   1 H     3.600229213631E-01 -4.459836597098E-01  1.217694853311E-01
     76 F   1 H    -3.600229213631E-01  5.401634029020E-02  3.782305146689E-01
     77 T   1 H    -3.027600091302E-01  4.874397337343E-01 -4.274695193126E-01
     78 F   1 H     3.027600091302E-01 -1.256026626570E-02 -7.253048068740E-02
     79 F   1 H     3.027600091302E-01 -4.874397337343E-01  4.274695193126E-01
     80 F   1 H    -3.027600091302E-01  1.256026626570E-02  7.253048068740E-02
     81 T   1 H    -2.486301902838E-01  2.956557958814E-01 -4.593180403679E-01
     82 F   1 H     2.486301902838E-01 -2.043442041186E-01 -4.068195963210E-02
     83 F   1 H     2.486301902838E-01 -2.956557958814E-01  4.593180403679E-01
     84 F   1 H    -2.486301902838E-01  2.043442041186E-01  4.068195963210E-02

 T = ATOM BELONGING TO THE ASYMMETRIC UNIT

 ****    4 SYMMOPS - TRANSLATORS IN FRACTIONAL UNITS
 **** MATRICES AND TRANSLATORS IN THE CRYSTALLOGRAPHIC REFERENCE FRAME
   V INV                    ROTATION MATRICES                   TRANSLATORS
   1   1  1.00  0.00  0.00  0.00  1.00  0.00  0.00  0.00  1.00  0.00  0.00  0.00
   2   2 -1.00  0.00  0.00  0.00  1.00  0.00  0.00  0.00 -1.00  0.00  0.50  0.50
   3   3 -1.00  0.00  0.00  0.00 -1.00  0.00  0.00  0.00 -1.00  0.00  0.00  0.00
   4   4  1.00  0.00 -0.00 -0.00 -1.00  0.00  0.00  0.00  1.00  0.00  0.50  0.50

 DIRECT LATTICE VECTORS CARTESIAN COMPONENTS (ANGSTROM)
          X                    Y                    Z
   0.100850529300E+02   0.617531389498E-15   0.000000000000E+00
   0.000000000000E+00   0.744443084000E+01   0.000000000000E+00
  -0.290344698792E+01   0.553078595853E-15   0.855308774131E+01


 CARTESIAN COORDINATES - PRIMITIVE CELL
 *******************************************************************************
 *      ATOM          X(ANGSTROM)         Y(ANGSTROM)         Z(ANGSTROM)
 *******************************************************************************
    1     8 O     3.228433420289E+00  3.242451512912E+00 -2.215766292296E+00
    2     8 O    -1.776709926329E+00 -4.797639070885E-01 -2.060777578356E+00
    3     8 O    -3.228433420289E+00 -3.242451512912E+00  2.215766292296E+00
    4     8 O     1.776709926329E+00  4.797639070885E-01  2.060777578356E+00
    5     8 O    -5.662644275803E-01  1.429051642515E+00  4.569967616397E+00
    6     8 O    -8.854590663801E-01 -2.293163777485E+00 -2.934237457439E-01
    7     8 O     5.662644275803E-01 -1.429051642515E+00 -4.569967616397E+00
    8     8 O     8.854590663801E-01  2.293163777485E+00  2.934237457439E-01
    9     8 O    -2.775736944849E+00 -2.299066134310E+00 -3.842529979242E+00
   10     8 O     4.227460438809E+00  1.423149285690E+00 -4.340138914111E-01
   11     8 O     2.775736944849E+00  2.299066134310E+00  3.842529979242E+00
   12     8 O    -4.227460438809E+00 -1.423149285690E+00  4.340138914111E-01
   13     8 O     7.839509117693E-01 -2.986890451298E+00 -2.359308764691E+00
   14     8 O     6.677725821911E-01  7.353249687024E-01 -1.917235105962E+00
   15     8 O    -7.839509117693E-01  2.986890451298E+00  2.359308764691E+00
   16     8 O    -6.677725821911E-01 -7.353249687024E-01  1.917235105962E+00
   17     8 O    -4.163188363901E+00  7.099747293349E-01 -2.500879661204E+00
   18     8 O    -4.470141072139E+00 -3.012240690665E+00 -1.775664209449E+00
   19     8 O     4.163188363901E+00 -7.099747293349E-01  2.500879661204E+00
   20     8 O     4.470141072139E+00  3.012240690665E+00  1.775664209449E+00
   21     8 O    -2.450088130568E+00  2.876105779926E+00 -7.568544531328E-01
   22     8 O     9.983646366079E-01 -8.461096400737E-01  5.033398323786E+00
   23     8 O     2.450088130568E+00 -2.876105779926E+00  7.568544531328E-01
   24     8 O    -9.983646366079E-01  8.461096400737E-01 -5.033398323786E+00
   25     8 O    -1.253425808135E+00  2.924657847435E+00 -3.270286282156E+00
   26     8 O     2.705149302095E+00 -7.975575725649E-01 -1.006257588496E+00
   27     8 O     1.253425808135E+00 -2.924657847435E+00  3.270286282156E+00
   28     8 O    -2.705149302095E+00  7.975575725649E-01  1.006257588496E+00
   29     1 H     3.052382629506E+00  2.610513685835E+00 -2.948882061662E+00
   30     1 H    -1.600659135546E+00 -1.111701734165E+00 -1.327661808991E+00
   31     1 H    -3.052382629506E+00 -2.610513685835E+00  2.948882061662E+00
   32     1 H     1.600659135546E+00  1.111701734165E+00  1.327661808991E+00
   33     1 H     2.401390141370E+00 -3.677770070274E+00 -2.155154319633E+00
   34     1 H    -9.496666474101E-01  4.444534972612E-02 -2.121389551020E+00
   35     1 H    -2.401390141370E+00  3.677770070274E+00  2.155154319633E+00
   36     1 H     9.496666474101E-01 -4.444534972612E-02  2.121389551020E+00
   37     1 H    -1.904857429626E-02  6.243952499446E-01  4.497900225259E+00
   38     1 H    -1.432674919664E+00 -3.097820170055E+00 -2.213563546059E-01
   39     1 H     1.904857429626E-02 -6.243952499446E-01 -4.497900225259E+00
   40     1 H     1.432674919664E+00  3.097820170055E+00  2.213563546059E-01
   41     1 H    -6.895569007011E-01  1.829021130503E+00  3.681909778861E+00
   42     1 H    -7.621665932593E-01 -1.893194289497E+00  5.946340917916E-01
   43     1 H     6.895569007011E-01 -1.829021130503E+00 -3.681909778861E+00
   44     1 H     7.621665932593E-01  1.893194289497E+00 -5.946340917916E-01
   45     1 H    -2.304275460922E+00 -1.622278100957E+00 -3.313831431864E+00
   46     1 H     3.755998954883E+00  2.099937319043E+00 -9.627124387886E-01
   47     1 H     2.304275460922E+00  1.622278100957E+00  3.313831431864E+00
   48     1 H    -3.755998954883E+00 -2.099937319043E+00  9.627124387886E-01
   49     1 H    -2.970772796050E+00 -1.861107710000E+00 -4.697204526667E+00
   50     1 H     4.422496290010E+00  1.861107710000E+00  4.206606560142E-01
   51     1 H     2.970772796050E+00  1.861107710000E+00  4.697204526667E+00
   52     1 H    -4.422496290010E+00 -1.861107710000E+00 -4.206606560142E-01
   53     1 H     3.558660593830E-01 -2.670753116356E+00 -1.538162381789E+00
   54     1 H     1.095857434577E+00  1.051462303644E+00 -2.738381488863E+00
   55     1 H    -3.558660593830E-01  2.670753116356E+00  1.538162381789E+00
   56     1 H    -1.095857434577E+00 -1.051462303644E+00  2.738381488863E+00
   57     1 H     1.468553890684E-01 -3.644383624395E+00 -2.723700605424E+00
   58     1 H     1.304868104892E+00  7.783179560453E-02 -1.552843265229E+00
   59     1 H    -1.468553890684E-01  3.644383624395E+00  2.723700605424E+00
   60     1 H    -1.304868104892E+00 -7.783179560453E-02  1.552843265229E+00
   61     1 H    -3.291451121463E+00  3.252390247763E-01 -2.262469044791E+00
   62     1 H     4.743174615424E+00 -3.396976395224E+00 -2.014074825861E+00
   63     1 H     3.291451121463E+00 -3.252390247763E-01  2.262469044791E+00
   64     1 H    -4.743174615424E+00  3.396976395224E+00  2.014074825861E+00
   65     1 H    -4.605792855713E+00  9.876691617379E-01 -1.674346438155E+00
   66     1 H    -4.027536580327E+00 -2.734546258262E+00 -2.602197432497E+00
   67     1 H     4.605792855713E+00 -9.876691617379E-01  1.674346438155E+00
   68     1 H     4.027536580327E+00  2.734546258262E+00  2.602197432497E+00
   69     1 H    -1.992784294897E+00  2.676707020145E+00 -1.598077442649E+00
   70     1 H     3.444507788857E+00 -1.045508399855E+00 -2.678466428003E+00
   71     1 H     1.992784294897E+00 -2.676707020145E+00  1.598077442649E+00
   72     1 H    -3.444507788857E+00  1.045508399855E+00  2.678466428003E+00
   73     1 H    -3.277298972555E+00  3.320094510480E+00 -1.041505092251E+00
   74     1 H     1.825575478594E+00 -4.021209095203E-01  5.318048962903E+00
   75     1 H     3.277298972555E+00 -3.320094510480E+00  1.041505092251E+00
   76     1 H    -1.825575478594E+00  4.021209095203E-01 -5.318048962903E+00
   77     1 H    -1.812215628889E+00  3.628711386453E+00 -3.656184305414E+00
   78     1 H     3.263939122850E+00 -9.350403354699E-02 -6.203595652384E-01
   79     1 H     1.812215628889E+00 -3.628711386453E+00  3.656184305414E+00
   80     1 H    -3.263939122850E+00  9.350403354699E-02  6.203595652384E-01
   81     1 H    -1.173843048204E+00  2.200989124884E+00 -3.928587500431E+00
   82     1 H     2.625566542165E+00 -1.521226295116E+00 -3.479563702216E-01
   83     1 H     1.173843048204E+00 -2.200989124884E+00  3.928587500431E+00
   84     1 H    -2.625566542165E+00  1.521226295116E+00  3.479563702216E-01

 *******************************************************************************
 STARTING BASIS SET HANDLING 
 *******************************************************************************

 Loading internal basis set: DEF2-MSVP           

 Please cite in your publication:
 Fully Optimized Contracted Gaussian Basis Sets for Atoms Li to Kr. A. Schäfer, 
 H. Horn and R. Ahlrichs; J. Chem. Phys. 97, 2571 (1992).                       
                                                                                
                    
 S. Grimme, J. G. Brandenburg, C. Bannwarth, and A. Hansen, J. Chem. Phys., 143,
  054107 (2015).                                                                
                                                                                
                    

 *******************************************************************************
 LOCAL ATOMIC FUNCTIONS BASIS SET
 *******************************************************************************
   ATOM   X(AU)   Y(AU)   Z(AU)  N. TYPE  EXPONENT  S COEF   P COEF   D/F/G COEF
 *******************************************************************************
   1 O    6.101   6.127  -4.187
                                  1 S  
                                         6.773E+03 1.727E-03 0.000E+00 0.000E+00
                                         1.017E+03 1.325E-02 0.000E+00 0.000E+00
                                         2.313E+02 6.603E-02 0.000E+00 0.000E+00
                                         6.501E+01 2.353E-01 0.000E+00 0.000E+00
                                         2.050E+01 5.498E-01 0.000E+00 0.000E+00
                                  2 S  
                                         6.716E+00 1.000E+00 0.000E+00 0.000E+00
                                  3 S  
                                         1.147E+00 1.000E+00 0.000E+00 0.000E+00
                                  4 S  
                                         3.342E-01 1.000E+00 0.000E+00 0.000E+00
                           5-     7 P  
                                         1.769E+01 0.000E+00 4.359E-02 0.000E+00
                                         3.854E+00 0.000E+00 2.318E-01 0.000E+00
                                         1.047E+00 0.000E+00 5.146E-01 0.000E+00
                           8-    10 P  
                                         2.759E-01 0.000E+00 1.000E+00 0.000E+00
                          11-    15 D  
                                         8.000E-01 0.000E+00 0.000E+00 1.000E+00
   2 O   -3.357  -0.907  -3.894
   3 O   -6.101  -6.127   4.187
   4 O    3.357   0.907   3.894
   5 O   -1.070   2.701   8.636
   6 O   -1.673  -4.333  -0.554
   7 O    1.070  -2.701  -8.636
   8 O    1.673   4.333   0.554
   9 O   -5.245  -4.345  -7.261
  10 O    7.989   2.689  -0.820
  11 O    5.245   4.345   7.261
  12 O   -7.989  -2.689   0.820
  13 O    1.481  -5.644  -4.458
  14 O    1.262   1.390  -3.623
  15 O   -1.481   5.644   4.458
  16 O   -1.262  -1.390   3.623
  17 O   -7.867   1.342  -4.726
  18 O   -8.447  -5.692  -3.356
  19 O    7.867  -1.342   4.726
  20 O    8.447   5.692   3.356
  21 O   -4.630   5.435  -1.430
  22 O    1.887  -1.599   9.512
  23 O    4.630  -5.435   1.430
  24 O   -1.887   1.599  -9.512
  25 O   -2.369   5.527  -6.180
  26 O    5.112  -1.507  -1.902
  27 O    2.369  -5.527   6.180
  28 O   -5.112   1.507   1.902
  29 H    5.768   4.933  -5.573
                                421 S  
                                         1.874E+01 1.968E-02 0.000E+00 0.000E+00
                                         2.826E+00 1.380E-01 0.000E+00 0.000E+00
                                         6.401E-01 4.783E-01 0.000E+00 0.000E+00
                                422 S  
                                         1.756E-01 1.000E+00 0.000E+00 0.000E+00
  30 H   -3.025  -2.101  -2.509
  31 H   -5.768  -4.933   5.573
  32 H    3.025   2.101   2.509
  33 H    4.538  -6.950  -4.073
  34 H   -1.795   0.084  -4.009
  35 H   -4.538   6.950   4.073
  36 H    1.795  -0.084   4.009
  37 H   -0.036   1.180   8.500
  38 H   -2.707  -5.854  -0.418
  39 H    0.036  -1.180  -8.500
  40 H    2.707   5.854   0.418
  41 H   -1.303   3.456   6.958
  42 H   -1.440  -3.578   1.124
  43 H    1.303  -3.456  -6.958
  44 H    1.440   3.578  -1.124
  45 H   -4.354  -3.066  -6.262
  46 H    7.098   3.968  -1.819
  47 H    4.354   3.066   6.262
  48 H   -7.098  -3.968   1.819
  49 H   -5.614  -3.517  -8.876
  50 H    8.357   3.517   0.795
  51 H    5.614   3.517   8.876
  52 H   -8.357  -3.517  -0.795
  53 H    0.672  -5.047  -2.907
  54 H    2.071   1.987  -5.175
  55 H   -0.672   5.047   2.907
  56 H   -2.071  -1.987   5.175
  57 H    0.278  -6.887  -5.147
  58 H    2.466   0.147  -2.934
  59 H   -0.278   6.887   5.147
  60 H   -2.466  -0.147   2.934
  61 H   -6.220   0.615  -4.275
  62 H    8.963  -6.419  -3.806
  63 H    6.220  -0.615   4.275
  64 H   -8.963   6.419   3.806
  65 H   -8.704   1.866  -3.164
  66 H   -7.611  -5.168  -4.917
  67 H    8.704  -1.866   3.164
  68 H    7.611   5.168   4.917
  69 H   -3.766   5.058  -3.020
  70 H    6.509  -1.976  -5.062
  71 H    3.766  -5.058   3.020
  72 H   -6.509   1.976   5.062
  73 H   -6.193   6.274  -1.968
  74 H    3.450  -0.760  10.050
  75 H    6.193  -6.274   1.968
  76 H   -3.450   0.760 -10.050
  77 H   -3.425   6.857  -6.909
  78 H    6.168  -0.177  -1.172
  79 H    3.425  -6.857   6.909
  80 H   -6.168   0.177   1.172
  81 H   -2.218   4.159  -7.424
  82 H    4.962  -2.875  -0.658
  83 H    2.218  -4.159   7.424
  84 H   -4.962   2.875   0.658

 *******************************************************************************
 FINISHED BASIS SET HANDLING 
 *******************************************************************************

 INFORMATION **** SET_MPP **** PCRYSTAL CALCULATION
 INFORMATION **** READM2 **** NEW DEFAULT: FOCK/KS MATRIX MIXING SET TO 30 %
 INFORMATION **** READM2 **** NEW DEFAULT: FULL DIRECT SCF MODE
 INFORMATION **** READM2 **** NEW DEFAULT: COULOMB BIPOLAR BUFFER SET TO 32 Mb
 INFORMATION **** READM2 **** NEW DEFAULT: EXCHANGE BIPOLAR BUFFER SET TO 32 Mb

 *******************************************************************************
 NEW DEFAULT: DFT INTEGRATION GRID INCREASED TO XLGRID
 NEW DEFAULT: DIIS ACCELERATOR ACTIVE
 USE KEYWORD NODIIS TO TURN IT OFF
 *******************************************************************************

 INFORMATION **** RDDFTP **** HSE-3c calculation
 INFORMATION **** RDDFTP **** HSE screened hybrid functional combined with D3 and gCP

PLEASE CITE:
(1) HSE-3c Reference
 J. G. Brandenburg, E. Caldeweyer, and S. Grimme, 
 Phys. Chem. Chem. Phys. 18, 15519 (2016)
(2) DFT-D3 Reference
 S. Grimme, J. Antony, S. Ehrlich,
 and H. Krieg, J. Chem. Phys. 132, 154104 (2010)
(3) gCP Reference
 H. Kruse and S. Grimme J. Chem. Phys, 136, 154101 (2012)
 J. G. Brandenburg, M. Alessio, B. Civalleri, M. F. Peintinger
 T. Bredow, and S. Grimme, J. Phys. Chem. A, 117, 9282 (2013) 

 WARNING **** RDDFTP **** HSE3c-HJS ACTIVE
 RANGE SEPARATION - OMEGA:   0.110000000000000     
 WARNING **** RDDFTP **** HSE-3c has to be combined with def2-mSVP basis set
 WARNING **** RDDFTP **** Note: Harmonic frequencies are scaled by 0.95
 WARNING **** RDDFTP **** as recommended in original publication
 INFORMATION **** BIPOSIZE **** COULOMB BIPOLAR BUFFER SET TO    60000000
 INFORMATION **** EXCHSIZE **** EXCHANGE BIPOLAR BUFFER SIZE SET TO    40000000
 *******************************************************************************
 N. OF ATOMS PER CELL        84  COULOMB OVERLAP TOL         (T1) 10**   -6
 NUMBER OF SHELLS           308  COULOMB PENETRATION TOL     (T2) 10**   -6
 NUMBER OF AO               532  EXCHANGE OVERLAP TOL        (T3) 10**   -6
 N. OF ELECTRONS PER CELL   280  EXCHANGE PSEUDO OVP (F(G))  (T4) 10**   -6
 CORE ELECTRONS PER CELL     56  EXCHANGE PSEUDO OVP (P(G))  (T5) 10**  -12
 N. OF SYMMETRY OPERATORS     4  POLE ORDER IN MONO ZONE                  4
 *******************************************************************************
 TYPE OF CALCULATION :  RESTRICTED CLOSED SHELL
 KOHN-SHAM HAMILTONIAN

 (EXCHANGE)[CORRELATION] FUNCTIONAL:(HSE-3c)[PBEh-3c]

 RANGE-SEPARATED HYBRID FUNCTIONAL 
 OMEGA (SHORT-RANGE)[LONG-RANGE]:(    0.1100)[    0.0000]

 HYBRID EXCHANGE - PERCENTAGE OF FOCK EXCHANGE    42.0000

 CAPPA:IS1  1;IS2  1;IS3  1; K PTS MONK NET   1; SYMMOPS:K SPACE   4;G SPACE   4

 *******************************************************************************
 MAX NUMBER OF SCF CYCLES      50  CONVERGENCE ON DELTAP        10**-16
 WEIGHT OF F(I) IN F(I+1)      30% CONVERGENCE ON ENERGY        10**- 6
 S(K) EIGENV. THRESHOLD  10*10.**-4
 SHRINK. FACT.(MONKH.)    1  1  1  NUMBER OF K POINTS IN THE IBZ      1
 SHRINKING FACTOR(GILAT NET)    1  NUMBER OF K POINTS(GILAT NET)      1
 *******************************************************************************
 *** K POINTS COORDINATES (OBLIQUE COORDINATES IN UNITS OF IS =  1)
   1-R(  0  0  0)

 DIRECT LATTICE VECTORS COMPON. (A.U.)     RECIP. LATTICE VECTORS COMPON. (A.U.) 
        X            Y            Z              X            Y            Z
   19.0579881    0.0000000    0.0000000      0.3296878    0.0000000    0.1119164
    0.0000000   14.0679355    0.0000000     -0.0000000    0.4466317   -0.0000000
   -5.4867197    0.0000000   16.1629934      0.0000000    0.0000000    0.3887390

 DISK SPACE FOR EIGENVECTORS (FTN 10)      283024 REALS

 SYMMETRY ADAPTION OF THE BLOCH FUNCTIONS ENABLED
 TTTTTTTTTTTTTTTTTTTTTTTTTTTTTT gordsh1     TELAPSE        0.38 TCPU        0.06

 MATRIX SIZE: P(G)  357208, F(G)   62772, P(G) IRR   45480, F(G) IRR   15970
 MAX G-VECTOR INDEX FOR 1- AND 2-ELECTRON INTEGRALS  49

 TTTTTTTTTTTTTTTTTTTTTTTTTTTTTT INPUT       TELAPSE        0.40 TCPU        0.08

 NEIGHBORS OF THE NON-EQUIVALENT ATOMS

 N = NUMBER OF NEIGHBORS AT DISTANCE R
    ATOM  N     R/ANG      R/AU   NEIGHBORS (ATOM LABELS AND CELL INDICES)
   1 O    1     0.9811     1.8539   33 H    0 1 0
   1 O    1     0.9838     1.8591   29 H    0 0 0
   1 O    1     1.7272     3.2639   62 H    0 1 0
   1 O    1     1.7759     3.3560   46 H    0 0 0
   1 O    1     2.6845     5.0729    5 O    0 0-1
   1 O    1     2.7027     5.1073   18 O    1 1 0

   5 O    1     0.9758     1.8439   37 H    0 0 0
   5 O    1     0.9817     1.8552   41 H    0 0 0
   5 O    1     1.7254     3.2605   29 H    0 0 1
   5 O    1     1.7980     3.3977   54 H    0 0 1
   5 O    1     2.6845     5.0729    1 O    0 0 1
   5 O    1     2.7132     5.1271   15 O    0 0 0

   9 O    1     0.9797     1.8514   45 H    0 0 0
   9 O    1     0.9800     1.8518   49 H    0 0 0
   9 O    1     1.8065     3.4137   77 H    0-1 0
   9 O    1     1.8152     3.4303   66 H    0 0 0
   9 O    1     2.7325     5.1638   19 O   -1 0-1
   9 O    1     2.7354     5.1692    2 O    0 0 0

  13 O    1     0.9785     1.8491   53 H    0 0 0
  13 O    1     0.9854     1.8621   57 H    0 0 0
  13 O    1     1.7604     3.3266   43 H    0 0 0
  13 O    1     1.7706     3.3460   33 H    0 0 0
  13 O    1     2.7075     5.1164   25 O    0-1 0
  13 O    1     2.7132     5.1271    7 O    0 0 0

  17 O    1     0.9778     1.8478   65 H    0 0 0
  17 O    1     0.9822     1.8562   61 H    0 0 0
  17 O    1     1.7786     3.3611   51 H   -1 0-1
  17 O    1     1.7885     3.3797   74 H   -1 0-1
  17 O    1     2.7027     5.1073    2 O    0 0 0
  17 O    1     2.7325     5.1638   11 O   -1 0-1

  21 O    1     0.9780     1.8482   69 H    0 0 0
  21 O    1     0.9810     1.8539   73 H    0 0 0
  21 O    1     1.7570     3.3203   84 H    0 0 0
  21 O    1     1.8666     3.5274   38 H    0 1 0
  21 O    1     2.7375     5.1732   28 O    0 0 0
  21 O    1     2.7459     5.1890   18 O    0 1 0

  25 O    1     0.9782     1.8485   77 H    0 0 0
  25 O    1     0.9815     1.8548   81 H    0 0 0
  25 O    1     1.7395     3.2872   57 H    0 1 0
  25 O    1     1.8451     3.4867   69 H    0 0 0
  25 O    1     2.7075     5.1164   13 O    0 1 0
  25 O    1     2.7375     5.1732   24 O    0 0 0

  29 H    1     0.9838     1.8591    1 O    0 0 0
  29 H    1     1.5461     2.9217   33 H    0 1 0
  29 H    1     1.7254     3.2605    5 O    0 0-1
  29 H    1     2.1681     4.0971   46 H    0 0 0
  29 H    1     2.2381     4.2294   41 H    0 0-1
  29 H    1     2.2796     4.3079   37 H    0 0-1

  33 H    1     0.9811     1.8539    1 O    0-1 0
  33 H    1     1.5461     2.9217   29 H    0-1 0
  33 H    1     1.7706     3.3460   13 O    0 0 0
  33 H    1     2.3254     4.3943   57 H    0 0 0
  33 H    1     2.3620     4.4635   53 H    0 0 0
  33 H    1     2.3628     4.4650   62 H    0 0 0

  37 H    1     0.9758     1.8439    5 O    0 0 0
  37 H    1     1.6020     3.0274   41 H    0 0 0
  37 H    1     1.8666     3.5274   22 O    0 0 0
  37 H    1     2.2355     4.2246   70 H    0 0 1
  37 H    1     2.2617     4.2740   54 H    0 0 1
  37 H    1     2.2647     4.2797   74 H    0 0 0

  41 H    1     0.9817     1.8552    5 O    0 0 0
  41 H    1     1.6020     3.0274   37 H    0 0 0
  41 H    1     1.7604     3.3266   15 O    0 0 0
  41 H    1     2.1233     4.0124   59 H    0 0 0
  41 H    1     2.2381     4.2294   29 H    0 0 1
  41 H    1     2.3271     4.3976   55 H    0 0 0

  45 H    1     0.9797     1.8514    9 O    0 0 0
  45 H    1     1.5540     2.9367   49 H    0 0 0
  45 H    1     1.7759     3.3560    2 O    0 0 0
  45 H    1     2.1681     4.0971   30 H    0 0 0
  45 H    1     2.1710     4.1026   66 H    0 0 0
  45 H    1     2.2739     4.2970   77 H    0-1 0

  49 H    1     0.9800     1.8518    9 O    0 0 0
  49 H    1     1.5540     2.9367   45 H    0 0 0
  49 H    1     1.7786     3.3611   19 O   -1 0-1
  49 H    1     2.3829     4.5029   67 H   -1 0-1
  49 H    1     2.3965     4.5287   63 H   -1 0-1
  49 H    1     2.4993     4.7230   77 H    0-1 0

  53 H    1     0.9785     1.8491   13 O    0 0 0
  53 H    1     1.5483     2.9258   57 H    0 0 0
  53 H    1     1.7980     3.3977    6 O    0 0 0
  53 H    1     2.2617     4.2740   38 H    0 0 0
  53 H    1     2.3271     4.3976   43 H    0 0 0
  53 H    1     2.3620     4.4635   33 H    0 0 0

  57 H    1     0.9854     1.8621   13 O    0 0 0
  57 H    1     1.5483     2.9258   53 H    0 0 0
  57 H    1     1.7395     3.2872   25 O    0-1 0
  57 H    1     2.1233     4.0124   43 H    0 0 0
  57 H    1     2.1764     4.1129   77 H    0-1 0
  57 H    1     2.3254     4.3943   33 H    0 0 0

  61 H    1     0.9822     1.8562   17 O    0 0 0
  61 H    1     1.5850     2.9952   65 H    0 0 0
  61 H    1     1.7272     3.2639    2 O    0 0 0
  61 H    1     2.3628     4.4650   34 H    0 0 0
  61 H    1     2.3953     4.5264   74 H   -1 0-1
  61 H    1     2.3965     4.5287   51 H   -1 0-1

  65 H    1     0.9778     1.8478   17 O    0 0 0
  65 H    1     1.5850     2.9952   61 H    0 0 0
  65 H    1     1.8152     3.4303   10 O   -1 0 0
  65 H    1     2.1710     4.1026   46 H   -1 0 0
  65 H    1     2.2204     4.1959   74 H   -1 0-1
  65 H    1     2.3829     4.5029   51 H   -1 0-1

  69 H    1     0.9780     1.8482   21 O    0 0 0
  69 H    1     1.5407     2.9115   73 H    0 0 0
  69 H    1     1.8451     3.4867   25 O    0 0 0
  69 H    1     2.2355     4.2246   38 H    0 1 0
  69 H    1     2.2748     4.2988   77 H    0 0 0
  69 H    1     2.3500     4.4409   84 H    0 0 0

  73 H    1     0.9810     1.8539   21 O    0 0 0
  73 H    1     1.5407     2.9115   69 H    0 0 0
  73 H    1     1.7885     3.3797   18 O    0 1 0
  73 H    1     2.2204     4.1959   66 H    0 1 0
  73 H    1     2.2647     4.2797   38 H    0 1 0
  73 H    1     2.3646     4.4684   84 H    0 0 0

  77 H    1     0.9782     1.8485   25 O    0 0 0
  77 H    1     1.5875     2.9999   81 H    0 0 0
  77 H    1     1.8065     3.4137    9 O    0 1 0
  77 H    1     2.1764     4.1129   57 H    0 1 0
  77 H    1     2.2739     4.2970   45 H    0 1 0
  77 H    1     2.2748     4.2988   69 H    0 0 0

  81 H    1     0.9815     1.8548   25 O    0 0 0
  81 H    1     1.5875     2.9999   77 H    0 0 0
  81 H    1     1.7570     3.3203   24 O    0 0 0
  81 H    1     2.3500     4.4409   72 H    0 0-1
  81 H    1     2.3646     4.4684   76 H    0 0 0
  81 H    1     2.3985     4.5326   57 H    0 1 0


 SYMMETRY ALLOWED INTERNAL DEGREE(S) OF FREEDOM:  63
 TTTTTTTTTTTTTTTTTTTTTTTTTTTTTT SYMM        TELAPSE        0.42 TCPU        0.09
 TTTTTTTTTTTTTTTTTTTTTTTTTTTTTT INT_SCREEN  TELAPSE        0.43 TCPU        0.10

 DFT PARAMETERS

     ATOM       ELECTRONS   NET CHARGE   R(ANGSTROM)
   1   8  O       8.0000      0.0000     0.74000000
  29   1  H       1.0000      0.0000     1.11000000

 SIZE OF GRID=     450901
 TTTTTTTTTTTTTTTTTTTTTTTTTTTTTT MAKE_GRID2  TELAPSE        9.45 TCPU        9.11
 BECKE WEIGHT FUNCTION
 RADSAFE =     2.00
 TOLERANCES - DENSITY:10**- 6; POTENTIAL:10**- 9; GRID WGT:10**-14

 RADIAL INTEGRATION  - INTERVALS (POINTS,UPPER LIMIT):            1( 75,  4.0*R)

 ANGULAR INTEGRATION - INTERVALS (ACCURACY LEVEL [N. POINTS] UPPER LIMIT):
  1(  4[  86]   0.2)  2(  8[ 194]   0.5)  3( 12[ 350]   0.9)  4( 16[ 974]   3.5)
  5( 12[ 350]9999.0)
 TTTTTTTTTTTTTTTTTTTTTTTTTTTTTT INT_CALC    TELAPSE        9.48 TCPU        9.14
 EEEEEEEEEE INT_CALC TERMINATION  DATE 25 03 2019 TIME 17:52:50.1

 *******************************************************************************
 !drive by JGB                                                                   
 CRYSTAL - SCF - TYPE OF CALCULATION :  RESTRICTED CLOSED SHELL
 *******************************************************************************

 CAPPA:IS1  1;IS2  1;IS3  1; K PTS MONK NET   1; SYMMOPS:K SPACE   4;G SPACE   4

 TTTTTTTTTTTTTTTTTTTTTTTTTTTTTT SDIK        TELAPSE        9.79 TCPU        9.45

 AAAAAAAAAAAAAAAAAAAAAAAAAAAAAAAAAAAAAAAAAAAAAAAAAAAAAAAAAAAAAAAAAAAAAAAAAAAAAAA
         ATOMIC WAVEFUNCTION(S)


 NUCLEAR CHARGE  8.0  SYMMETRY SPECIES            S    P
 N. ELECTRONS    8.0  NUMBER OF PRIMITIVE GTOS    8    4
                      NUMBER OF CONTRACTED GTOS   4    2
                      NUMBER OF CLOSED SHELLS     2    0
                      OPEN SHELL OCCUPATION       0    4

  ZNUC SCFIT  TOTAL HF ENERGY   KINETIC ENERGY   VIRIAL THEOREM ACCURACY
   8.0  12   -7.477373220E+01  7.477365593E+01 -2.000001020E+00  3.8E-06

 NUCLEAR CHARGE  1.0  SYMMETRY SPECIES            S
 N. ELECTRONS    1.0  NUMBER OF PRIMITIVE GTOS    4
                      NUMBER OF CONTRACTED GTOS   2
                      NUMBER OF CLOSED SHELLS     0
                      OPEN SHELL OCCUPATION       1

  ZNUC SCFIT  TOTAL HF ENERGY   KINETIC ENERGY   VIRIAL THEOREM ACCURACY
   1.0   1   -4.977266687E-01  5.190767460E-01 -1.958869132E+00  1.8E-16

 AAAAAAAAAAAAAAAAAAAAAAAAAAAAAAAAAAAAAAAAAAAAAAAAAAAAAAAAAAAAAAAAAAAAAAAAAAAAAAA

 CHARGE NORMALIZATION FACTOR   1.00000000
 TOTAL ATOMIC CHARGES:
   8.0000000   8.0000000   8.0000000   8.0000000   8.0000000   8.0000000
   8.0000000   8.0000000   8.0000000   8.0000000   8.0000000   8.0000000
   8.0000000   8.0000000   8.0000000   8.0000000   8.0000000   8.0000000
   8.0000000   8.0000000   8.0000000   8.0000000   8.0000000   8.0000000
   8.0000000   8.0000000   8.0000000   8.0000000   1.0000000   1.0000000
   1.0000000   1.0000000   1.0000000   1.0000000   1.0000000   1.0000000
   1.0000000   1.0000000   1.0000000   1.0000000   1.0000000   1.0000000
   1.0000000   1.0000000   1.0000000   1.0000000   1.0000000   1.0000000
   1.0000000   1.0000000   1.0000000   1.0000000   1.0000000   1.0000000
   1.0000000   1.0000000   1.0000000   1.0000000   1.0000000   1.0000000
   1.0000000   1.0000000   1.0000000   1.0000000   1.0000000   1.0000000
   1.0000000   1.0000000   1.0000000   1.0000000   1.0000000   1.0000000
   1.0000000   1.0000000   1.0000000   1.0000000   1.0000000   1.0000000
   1.0000000   1.0000000   1.0000000   1.0000000   1.0000000   1.0000000
 TTTTTTTTTTTTTTTTTTTTTTTTTTTTTT MOQGAD      TELAPSE       14.62 TCPU       14.29
 TTTTTTTTTTTTTTTTTTTTTTTTTTTTTT SHELLXN     TELAPSE       36.51 TCPU       36.16
 TTTTTTTTTTTTTTTTTTTTTTTTTTTTTT MONMO3      TELAPSE       37.49 TCPU       37.14
 NUMERICALLY INTEGRATED DENSITY    280.0000189275
 TTTTTTTTTTTTTTTTTTTTTTTTTTTTTT NUMDFT      TELAPSE       38.76 TCPU       38.41
 CYC   0 ETOT(AU) -2.136960386894E+03 DETOT -2.14E+03 tst  0.00E+00 PX  1.00E+00
 TTTTTTTTTTTTTTTTTTTTTTTTTTTTTT DIIS        TELAPSE       38.77 TCPU       38.42
 TTTTTTTTTTTTTTTTTTTTTTTTTTTTTT FDIK        TELAPSE       38.93 TCPU       38.52
 INSULATING STATE
 TOP OF VALENCE BANDS -    BAND    140; K    1; EIG -4.1541339E-01 AU
 BOTTOM OF VIRTUAL BANDS - BAND    141; K    1; EIG -9.6557205E-02 AU
 DIRECT ENERGY BAND GAP:   8.6765 eV
 TTTTTTTTTTTTTTTTTTTTTTTTTTTTTT PDIG        TELAPSE       38.93 TCPU       38.52
 CHARGE NORMALIZATION FACTOR   1.00000000
 TOTAL ATOMIC CHARGES:
   9.0775946   9.0775946   9.0775946   9.0775946   9.0696960   9.0696960
   9.0696960   9.0696960   9.0783793   9.0783793   9.0783793   9.0783793
   9.0666848   9.0666848   9.0666848   9.0666848   9.0781569   9.0781569
   9.0781569   9.0781569   9.0641583   9.0641583   9.0641583   9.0641583
   9.0786487   9.0786487   9.0786487   9.0786487   0.4681374   0.4681374
   0.4681374   0.4681374   0.4582788   0.4582788   0.4582788   0.4582788
   0.4654023   0.4654023   0.4654023   0.4654023   0.4610168   0.4610168
   0.4610168   0.4610168   0.4669470   0.4669470   0.4669470   0.4669470
   0.4614878   0.4614878   0.4614878   0.4614878   0.4627156   0.4627156
   0.4627156   0.4627156   0.4670010   0.4670010   0.4670010   0.4670010
   0.4576030   0.4576030   0.4576030   0.4576030   0.4642581   0.4642581
   0.4642581   0.4642581   0.4658504   0.4658504   0.4658504   0.4658504
   0.4682857   0.4682857   0.4682857   0.4682857   0.4625072   0.4625072
   0.4625072   0.4625072   0.4571904   0.4571904   0.4571904   0.4571904
 TTTTTTTTTTTTTTTTTTTTTTTTTTTTTT MOQGAD      TELAPSE       38.94 TCPU       38.53
 TTTTTTTTTTTTTTTTTTTTTTTTTTTTTT SHELLXN     TELAPSE       61.60 TCPU       61.18
 TTTTTTTTTTTTTTTTTTTTTTTTTTTTTT MONMO3      TELAPSE       62.52 TCPU       62.11
 NUMERICALLY INTEGRATED DENSITY    280.0000058850
 TTTTTTTTTTTTTTTTTTTTTTTTTTTTTT NUMDFT      TELAPSE       65.04 TCPU       64.62
 CYC   1 ETOT(AU) -2.135574066988E+03 DETOT  1.39E+00 tst  0.00E+00 PX  1.00E+00
 TTTTTTTTTTTTTTTTTTTTTTTTTTTTTT DIIS        TELAPSE       65.11 TCPU       64.69
 DIIS TEST: 0.28694E+01 AT SCF   CYCLE   1 - MIX   30 %
 TTTTTTTTTTTTTTTTTTTTTTTTTTTTTT FDIK        TELAPSE       65.12 TCPU       64.70
 INSULATING STATE
 TOP OF VALENCE BANDS -    BAND    140; K    1; EIG -3.1918507E-01 AU
 BOTTOM OF VIRTUAL BANDS - BAND    141; K    1; EIG -3.5224914E-02 AU
 DIRECT ENERGY BAND GAP:   7.7270 eV
 TTTTTTTTTTTTTTTTTTTTTTTTTTTTTT PDIG        TELAPSE       65.12 TCPU       64.70
 CHARGE NORMALIZATION FACTOR   1.00000000
 TOTAL ATOMIC CHARGES:
   8.8667330   8.8667330   8.8667330   8.8667330   8.8602884   8.8602884
   8.8602884   8.8602884   8.8571224   8.8571224   8.8571224   8.8571224
   8.8579903   8.8579903   8.8579903   8.8579903   8.8664764   8.8664764
   8.8664764   8.8664764   8.8465312   8.8465312   8.8465312   8.8465312
   8.8629718   8.8629718   8.8629718   8.8629718   0.5756900   0.5756900
   0.5756900   0.5756900   0.5585132   0.5585132   0.5585132   0.5585132
   0.5763132   0.5763132   0.5763132   0.5763132   0.5645468   0.5645468
   0.5645468   0.5645468   0.5790641   0.5790641   0.5790641   0.5790641
   0.5685709   0.5685709   0.5685709   0.5685709   0.5658026   0.5658026
   0.5658026   0.5658026   0.5728471   0.5728471   0.5728471   0.5728471
   0.5599972   0.5599972   0.5599972   0.5599972   0.5755339   0.5755339
   0.5755339   0.5755339   0.5737894   0.5737894   0.5737894   0.5737894
   0.5786935   0.5786935   0.5786935   0.5786935   0.5738183   0.5738183
   0.5738183   0.5738183   0.5587061   0.5587061   0.5587061   0.5587061
 TTTTTTTTTTTTTTTTTTTTTTTTTTTTTT MOQGAD      TELAPSE       65.13 TCPU       64.72
 TTTTTTTTTTTTTTTTTTTTTTTTTTTTTT SHELLXN     TELAPSE       87.76 TCPU       87.34
 TTTTTTTTTTTTTTTTTTTTTTTTTTTTTT MONMO3      TELAPSE       88.74 TCPU       88.32
 NUMERICALLY INTEGRATED DENSITY    280.0000074212
 TTTTTTTTTTTTTTTTTTTTTTTTTTTTTT NUMDFT      TELAPSE       91.19 TCPU       90.77
 CYC   2 ETOT(AU) -2.136161273540E+03 DETOT -5.87E-01 tst  2.31E-03 PX  1.26E-01
 TTTTTTTTTTTTTTTTTTTTTTTTTTTTTT DIIS        TELAPSE       91.21 TCPU       90.78
 DIIS TEST: 0.63063E+00 AT SCF   CYCLE   2 - DIIS ACTIVE - HISTORY:     2 CYCLES
 TTTTTTTTTTTTTTTTTTTTTTTTTTTTTT FDIK        TELAPSE       91.22 TCPU       90.79
 INSULATING STATE
 TOP OF VALENCE BANDS -    BAND    140; K    1; EIG -3.6488461E-01 AU
 BOTTOM OF VIRTUAL BANDS - BAND    141; K    1; EIG -3.7852313E-02 AU
 DIRECT ENERGY BAND GAP:   8.8990 eV
 TTTTTTTTTTTTTTTTTTTTTTTTTTTTTT PDIG        TELAPSE       91.23 TCPU       90.79
 CHARGE NORMALIZATION FACTOR   1.00000000
 TOTAL ATOMIC CHARGES:
   8.9373719   8.9373719   8.9373719   8.9373719   8.9313305   8.9313305
   8.9313305   8.9313305   8.9327502   8.9327502   8.9327502   8.9327502
   8.9316053   8.9316053   8.9316053   8.9316053   8.9380133   8.9380133
   8.9380133   8.9380133   8.9240560   8.9240560   8.9240560   8.9240560
   8.9377620   8.9377620   8.9377620   8.9377620   0.5391124   0.5391124
   0.5391124   0.5391124   0.5243616   0.5243616   0.5243616   0.5243616
   0.5387455   0.5387455   0.5387455   0.5387455   0.5288305   0.5288305
   0.5288305   0.5288305   0.5418001   0.5418001   0.5418001   0.5418001
   0.5311285   0.5311285   0.5311285   0.5311285   0.5302867   0.5302867
   0.5302867   0.5302867   0.5366562   0.5366562   0.5366562   0.5366562
   0.5243964   0.5243964   0.5243964   0.5243964   0.5380964   0.5380964
   0.5380964   0.5380964   0.5363301   0.5363301   0.5363301   0.5363301
   0.5400086   0.5400086   0.5400086   0.5400086   0.5352170   0.5352170
   0.5352170   0.5352170   0.5221406   0.5221406   0.5221406   0.5221406
 TTTTTTTTTTTTTTTTTTTTTTTTTTTTTT MOQGAD      TELAPSE       91.24 TCPU       90.80
 TTTTTTTTTTTTTTTTTTTTTTTTTTTTTT SHELLXN     TELAPSE      113.84 TCPU      113.40
 TTTTTTTTTTTTTTTTTTTTTTTTTTTTTT MONMO3      TELAPSE      114.83 TCPU      114.40
 NUMERICALLY INTEGRATED DENSITY    280.0000069183
 TTTTTTTTTTTTTTTTTTTTTTTTTTTTTT NUMDFT      TELAPSE      117.28 TCPU      116.84
 CYC   3 ETOT(AU) -2.136326039796E+03 DETOT -1.65E-01 tst  2.50E-04 PX  4.36E-02
 TTTTTTTTTTTTTTTTTTTTTTTTTTTTTT DIIS        TELAPSE      117.28 TCPU      116.85
 DIIS TEST: 0.22989E-02 AT SCF   CYCLE   3 - DIIS ACTIVE - HISTORY:     3 CYCLES
 TTTTTTTTTTTTTTTTTTTTTTTTTTTTTT FDIK        TELAPSE      117.30 TCPU      116.85
 INSULATING STATE
 TOP OF VALENCE BANDS -    BAND    140; K    1; EIG -3.6276290E-01 AU
 BOTTOM OF VIRTUAL BANDS - BAND    141; K    1; EIG -3.5354507E-02 AU
 DIRECT ENERGY BAND GAP:   8.9092 eV
 TTTTTTTTTTTTTTTTTTTTTTTTTTTTTT PDIG        TELAPSE      117.30 TCPU      116.85
 CHARGE NORMALIZATION FACTOR   1.00000000
 TOTAL ATOMIC CHARGES:
   8.9373768   8.9373768   8.9373768   8.9373768   8.9307605   8.9307605
   8.9307605   8.9307605   8.9293364   8.9293364   8.9293364   8.9293364
   8.9286222   8.9286222   8.9286222   8.9286222   8.9372954   8.9372954
   8.9372954   8.9372954   8.9189472   8.9189472   8.9189472   8.9189472
   8.9349161   8.9349161   8.9349161   8.9349161   0.5392198   0.5392198
   0.5392198   0.5392198   0.5250780   0.5250780   0.5250780   0.5250780
   0.5394820   0.5394820   0.5394820   0.5394820   0.5294688   0.5294688
   0.5294688   0.5294688   0.5428451   0.5428451   0.5428451   0.5428451
   0.5325092   0.5325092   0.5325092   0.5325092   0.5315788   0.5315788
   0.5315788   0.5315788   0.5378413   0.5378413   0.5378413   0.5378413
   0.5250182   0.5250182   0.5250182   0.5250182   0.5388365   0.5388365
   0.5388365   0.5388365   0.5384835   0.5384835   0.5384835   0.5384835
   0.5417592   0.5417592   0.5417592   0.5417592   0.5366660   0.5366660
   0.5366660   0.5366660   0.5239590   0.5239590   0.5239590   0.5239590
 TTTTTTTTTTTTTTTTTTTTTTTTTTTTTT MOQGAD      TELAPSE      117.32 TCPU      116.86
 TTTTTTTTTTTTTTTTTTTTTTTTTTTTTT SHELLXN     TELAPSE      139.92 TCPU      139.46
 TTTTTTTTTTTTTTTTTTTTTTTTTTTTTT MONMO3      TELAPSE      140.91 TCPU      140.45
 NUMERICALLY INTEGRATED DENSITY    280.0000069409
 TTTTTTTTTTTTTTTTTTTTTTTTTTTTTT NUMDFT      TELAPSE      143.37 TCPU      142.91
 CYC   4 ETOT(AU) -2.136326404997E+03 DETOT -3.65E-04 tst  5.29E-07 PX  2.54E-03
 TTTTTTTTTTTTTTTTTTTTTTTTTTTTTT DIIS        TELAPSE      143.38 TCPU      142.92
 DIIS TEST: 0.12625E-03 AT SCF   CYCLE   4 - DIIS ACTIVE - HISTORY:     4 CYCLES
 TTTTTTTTTTTTTTTTTTTTTTTTTTTTTT FDIK        TELAPSE      143.39 TCPU      142.92
 INSULATING STATE
 TOP OF VALENCE BANDS -    BAND    140; K    1; EIG -3.6277317E-01 AU
 BOTTOM OF VIRTUAL BANDS - BAND    141; K    1; EIG -3.5088799E-02 AU
 DIRECT ENERGY BAND GAP:   8.9167 eV
 TTTTTTTTTTTTTTTTTTTTTTTTTTTTTT PDIG        TELAPSE      143.39 TCPU      142.92
 CHARGE NORMALIZATION FACTOR   1.00000000
 TOTAL ATOMIC CHARGES:
   8.9352678   8.9352678   8.9352678   8.9352678   8.9290207   8.9290207
   8.9290207   8.9290207   8.9308039   8.9308039   8.9308039   8.9308039
   8.9295249   8.9295249   8.9295249   8.9295249   8.9356555   8.9356555
   8.9356555   8.9356555   8.9220454   8.9220454   8.9220454   8.9220454
   8.9351859   8.9351859   8.9351859   8.9351859   0.5401468   0.5401468
   0.5401468   0.5401468   0.5254718   0.5254718   0.5254718   0.5254718
   0.5397908   0.5397908   0.5397908   0.5397908   0.5298549   0.5298549
   0.5298549   0.5298549   0.5427500   0.5427500   0.5427500   0.5427500
   0.5321933   0.5321933   0.5321933   0.5321933   0.5314321   0.5314321
   0.5314321   0.5314321   0.5376775   0.5376775   0.5376775   0.5376775
   0.5255313   0.5255313   0.5255313   0.5255313   0.5392619   0.5392619
   0.5392619   0.5392619   0.5374993   0.5374993   0.5374993   0.5374993
   0.5410431   0.5410431   0.5410431   0.5410431   0.5365168   0.5365168
   0.5365168   0.5365168   0.5233264   0.5233264   0.5233264   0.5233264
 TTTTTTTTTTTTTTTTTTTTTTTTTTTTTT MOQGAD      TELAPSE      143.40 TCPU      142.94
 TTTTTTTTTTTTTTTTTTTTTTTTTTTTTT SHELLXN     TELAPSE      165.73 TCPU      165.26
 TTTTTTTTTTTTTTTTTTTTTTTTTTTTTT MONMO3      TELAPSE      166.69 TCPU      166.22
 NUMERICALLY INTEGRATED DENSITY    280.0000069203
 TTTTTTTTTTTTTTTTTTTTTTTTTTTTTT NUMDFT      TELAPSE      169.07 TCPU      168.60
 CYC   5 ETOT(AU) -2.136326417047E+03 DETOT -1.21E-05 tst  8.79E-08 PX  1.62E-03
 TTTTTTTTTTTTTTTTTTTTTTTTTTTTTT DIIS        TELAPSE      169.08 TCPU      168.61
 DIIS TEST: 0.87661E-04 AT SCF   CYCLE   5 - DIIS ACTIVE - HISTORY:     5 CYCLES
 TTTTTTTTTTTTTTTTTTTTTTTTTTTTTT FDIK        TELAPSE      169.10 TCPU      168.61
 INSULATING STATE
 TOP OF VALENCE BANDS -    BAND    140; K    1; EIG -3.6274037E-01 AU
 BOTTOM OF VIRTUAL BANDS - BAND    141; K    1; EIG -3.5068015E-02 AU
 DIRECT ENERGY BAND GAP:   8.9164 eV
 TTTTTTTTTTTTTTTTTTTTTTTTTTTTTT PDIG        TELAPSE      169.10 TCPU      168.61
 CHARGE NORMALIZATION FACTOR   1.00000000
 TOTAL ATOMIC CHARGES:
   8.9363274   8.9363274   8.9363274   8.9363274   8.9299679   8.9299679
   8.9299679   8.9299679   8.9299188   8.9299188   8.9299188   8.9299188
   8.9289434   8.9289434   8.9289434   8.9289434   8.9365944   8.9365944
   8.9365944   8.9365944   8.9203700   8.9203700   8.9203700   8.9203700
   8.9352148   8.9352148   8.9352148   8.9352148   0.5397489   0.5397489
   0.5397489   0.5397489   0.5251796   0.5251796   0.5251796   0.5251796
   0.5396424   0.5396424   0.5396424   0.5396424   0.5296430   0.5296430
   0.5296430   0.5296430   0.5428887   0.5428887   0.5428887   0.5428887
   0.5323581   0.5323581   0.5323581   0.5323581   0.5314956   0.5314956
   0.5314956   0.5314956   0.5378265   0.5378265   0.5378265   0.5378265
   0.5252149   0.5252149   0.5252149   0.5252149   0.5390555   0.5390555
   0.5390555   0.5390555   0.5380053   0.5380053   0.5380053   0.5380053
   0.5414664   0.5414664   0.5414664   0.5414664   0.5366103   0.5366103
   0.5366103   0.5366103   0.5235282   0.5235282   0.5235282   0.5235282
 TTTTTTTTTTTTTTTTTTTTTTTTTTTTTT MOQGAD      TELAPSE      169.12 TCPU      168.63
 TTTTTTTTTTTTTTTTTTTTTTTTTTTTTT SHELLXN     TELAPSE      191.19 TCPU      190.70
 TTTTTTTTTTTTTTTTTTTTTTTTTTTTTT MONMO3      TELAPSE      192.18 TCPU      191.68
 NUMERICALLY INTEGRATED DENSITY    280.0000069367
 TTTTTTTTTTTTTTTTTTTTTTTTTTTTTT NUMDFT      TELAPSE      194.55 TCPU      194.06
 CYC   6 ETOT(AU) -2.136326437556E+03 DETOT -2.05E-05 tst  2.45E-08 PX  7.65E-04
 TTTTTTTTTTTTTTTTTTTTTTTTTTTTTT DIIS        TELAPSE      194.56 TCPU      194.07
 DIIS TEST: 0.26860E-05 AT SCF   CYCLE   6 - DIIS ACTIVE - HISTORY:     6 CYCLES
 TTTTTTTTTTTTTTTTTTTTTTTTTTTTTT FDIK        TELAPSE      194.57 TCPU      194.08
 INSULATING STATE
 TOP OF VALENCE BANDS -    BAND    140; K    1; EIG -3.6269982E-01 AU
 BOTTOM OF VIRTUAL BANDS - BAND    141; K    1; EIG -3.5056677E-02 AU
 DIRECT ENERGY BAND GAP:   8.9156 eV
 TTTTTTTTTTTTTTTTTTTTTTTTTTTTTT PDIG        TELAPSE      194.58 TCPU      194.08
 CHARGE NORMALIZATION FACTOR   1.00000000
 TOTAL ATOMIC CHARGES:
   8.9362992   8.9362992   8.9362992   8.9362992   8.9298630   8.9298630
   8.9298630   8.9298630   8.9300038   8.9300038   8.9300038   8.9300038
   8.9290505   8.9290505   8.9290505   8.9290505   8.9364429   8.9364429
   8.9364429   8.9364429   8.9204336   8.9204336   8.9204336   8.9204336
   8.9349817   8.9349817   8.9349817   8.9349817   0.5397462   0.5397462
   0.5397462   0.5397462   0.5252115   0.5252115   0.5252115   0.5252115
   0.5396656   0.5396656   0.5396656   0.5396656   0.5296702   0.5296702
   0.5296702   0.5296702   0.5428637   0.5428637   0.5428637   0.5428637
   0.5323607   0.5323607   0.5323607   0.5323607   0.5314875   0.5314875
   0.5314875   0.5314875   0.5378157   0.5378157   0.5378157   0.5378157
   0.5252664   0.5252664   0.5252664   0.5252664   0.5390870   0.5390870
   0.5390870   0.5390870   0.5380235   0.5380235   0.5380235   0.5380235
   0.5414576   0.5414576   0.5414576   0.5414576   0.5366534   0.5366534
   0.5366534   0.5366534   0.5236163   0.5236163   0.5236163   0.5236163
 TTTTTTTTTTTTTTTTTTTTTTTTTTTTTT MOQGAD      TELAPSE      194.59 TCPU      194.09
 TTTTTTTTTTTTTTTTTTTTTTTTTTTTTT SHELLXN     TELAPSE      216.61 TCPU      216.11
 TTTTTTTTTTTTTTTTTTTTTTTTTTTTTT MONMO3      TELAPSE      217.53 TCPU      217.03
 NUMERICALLY INTEGRATED DENSITY    280.0000069378
 TTTTTTTTTTTTTTTTTTTTTTTTTTTTTT NUMDFT      TELAPSE      219.94 TCPU      219.45
 CYC   7 ETOT(AU) -2.136326437656E+03 DETOT -9.95E-08 tst  4.16E-10 PX  1.08E-04
 TTTTTTTTTTTTTTTTTTTTTTTTTTTTTT DIIS        TELAPSE      219.96 TCPU      219.46
 DIIS TEST: 0.30474E-06 AT SCF   CYCLE   7 - DIIS ACTIVE - HISTORY:     7 CYCLES
 TTTTTTTTTTTTTTTTTTTTTTTTTTTTTT FDIK        TELAPSE      219.97 TCPU      219.46
 INSULATING STATE
 TOP OF VALENCE BANDS -    BAND    140; K    1; EIG -3.6272576E-01 AU
 BOTTOM OF VIRTUAL BANDS - BAND    141; K    1; EIG -3.5057322E-02 AU
 DIRECT ENERGY BAND GAP:   8.9163 eV
 TTTTTTTTTTTTTTTTTTTTTTTTTTTTTT PDIG        TELAPSE      219.98 TCPU      219.46
 CHARGE NORMALIZATION FACTOR   1.00000000
 TOTAL ATOMIC CHARGES:
   8.9362302   8.9362302   8.9362302   8.9362302   8.9298826   8.9298826
   8.9298826   8.9298826   8.9299154   8.9299154   8.9299154   8.9299154
   8.9289347   8.9289347   8.9289347   8.9289347   8.9365069   8.9365069
   8.9365069   8.9365069   8.9204115   8.9204115   8.9204115   8.9204115
   8.9351767   8.9351767   8.9351767   8.9351767   0.5397756   0.5397756
   0.5397756   0.5397756   0.5252317   0.5252317   0.5252317   0.5252317
   0.5396667   0.5396667   0.5396667   0.5396667   0.5296762   0.5296762
   0.5296762   0.5296762   0.5428996   0.5428996   0.5428996   0.5428996
   0.5323775   0.5323775   0.5323775   0.5323775   0.5315176   0.5315176
   0.5315176   0.5315176   0.5378343   0.5378343   0.5378343   0.5378343
   0.5252538   0.5252538   0.5252538   0.5252538   0.5390804   0.5390804
   0.5390804   0.5390804   0.5380083   0.5380083   0.5380083   0.5380083
   0.5414583   0.5414583   0.5414583   0.5414583   0.5366106   0.5366106
   0.5366106   0.5366106   0.5235513   0.5235513   0.5235513   0.5235513
 TTTTTTTTTTTTTTTTTTTTTTTTTTTTTT MOQGAD      TELAPSE      219.99 TCPU      219.48
 TTTTTTTTTTTTTTTTTTTTTTTTTTTTTT SHELLXN     TELAPSE      242.01 TCPU      241.50
 +++ ENERGIES IN A.U. +++
 ::: EXT EL-POLE                                  -2.5211796537679E+03
 ::: EXT EL-SPHEROPOLE                             3.0200981095406E+01
 ::: BIELET ZONE E-E                               3.0411401029615E+03
 ::: TOTAL E-E                                     5.5016143028898E+02
 ::: TOTAL E-N + N-E                              -4.1912578170137E+03
 ::: TOTAL N-N                                    -4.5762414771192E+02
 ::: KINETIC ENERGY                                2.1225776904986E+03
 ::: PSEUDO TOTAL   ENERGY                        -1.9761428439380E+03
 ::: VIRIAL COEFFICIENT                            1.0357269653616E+00
 TTTTTTTTTTTTTTTTTTTTTTTTTTTTTT MONMO3      TELAPSE      242.96 TCPU      242.44
 NUMERICALLY INTEGRATED DENSITY    280.0000069366
 TTTTTTTTTTTTTTTTTTTTTTTTTTTTTT NUMDFT      TELAPSE      245.33 TCPU      244.82
 CYC   8 ETOT(AU) -2.136326437721E+03 DETOT -6.54E-08 tst  2.48E-10 PX  1.08E-04

 == SCF ENDED - CONVERGENCE ON ENERGY      E(AU) -2.1363264377211E+03 CYCLES   8


 ENERGY EXPRESSION=HARTREE+FOCK EXCH*0.00000+(HSE-3c     EXCH)*1.00000+PBEh-3c    CORR


 TOTAL ENERGY(DFT)(AU)(  8) -2.1363264377211E+03 DE-6.5E-08 tester 2.5E-10
 TTTTTTTTTTTTTTTTTTTTTTTTTTTTTT EDFT        TELAPSE      245.33 TCPU      244.82
 
 INFORMATION **** DFTD3 ENERGY **** CALCULATE DFTD3 ENERGY

           DFT-D V3(BJ)
 DF                                         hse3c     
 parameters
 s6       :    1.0000
 s8       :    0.0000
 a1       :    0.4411
 a2       :    4.5182
 k1 k3    :   16.0000   -4.0000
 Cutoff   :   50.2022
 CN-Cutoff:   21.1671
 
 Edisp /kcal,au:   -60.3935 -0.09624318

 E6    /kcal :   -65.4250
 E8    /kcal :     0.0000
 E6(ABC) "   :   5.031470
 
 INFORMATION **** DFTD3 ENERGY **** NORMAL TERMINATION OF DFTD3 MODULE

 GCP ENERGY CALCULATION
  level           hse3c               basis:hse3c
  Nbf            532
  Atoms           84

  Parameters: 
  sigma     1.0000
  eta       1.4086
  alpha     0.2908
  beta      1.9526

  dmp_scal      4.0000
  dmp_exp       6.0000
 cutoffs: 
   distance [bohr] 60.0
   noise    [a.u.] 2.2E-16
 SR-damping   T
 ** gCP correction **
  Egcp:        0.3744147328 / (a.u.) ||     234.9488 / (kcal/mol)
 INFORMATION **** GCP **** NORMAL TERMINATION OF GCP MODULE

 *******************************************************************************

 DFT-D3-GCP DISPERSION AND COUNTERPOISE CORRECTION

 D3 DISPERSION ENERGY (AU)      -9.6243175036306E-02
 GCP ENERGY (AU)                 3.7441473275335E-01
 TOTAL ENERGY + DISP + GCP (AU) -2.1360482661633E+03

 *******************************************************************************

 EIGENVECTORS IN FORTRAN UNIT  8
 TTTTTTTTTTTTTTTTTTTTTTTTTTTTTT END         TELAPSE      248.52 TCPU      247.98
 EEEEEEEEEE TERMINATION  DATE 25 03 2019 TIME 17:56:49.2
NODE    0 CPU TIME =       247.983
NODE    1 CPU TIME =       248.020
NODE    2 CPU TIME =       247.903
NODE    3 CPU TIME =       247.991
NODE    4 CPU TIME =       243.176
NODE    5 CPU TIME =       247.855
NODE    6 CPU TIME =       247.360
NODE    7 CPU TIME =       247.790
    TOTAL CPU TIME =      1978.077
