 PROCESS            3  OF            8  WORKING
 PROCESS            0  OF            8  WORKING
 PROCESS            4  OF            8  WORKING
 PROCESS            1  OF            8  WORKING
 PROCESS            7  OF            8  WORKING
 PROCESS            5  OF            8  WORKING
 PROCESS            2  OF            8  WORKING
 PROCESS            6  OF            8  WORKING

         
 *******************************************************************************
 *                                                                             *
 *                               CRYSTAL17                                     *
 *                      public : 1.0.1 - Feb 1st, 2017                         *
 *                       HTTP://WWW.CRYSTAL.UNITO.IT                           *
 *                                                                             *
 *                              MAIN AUTHORS                                   *
 *                                                                             *
 *  R. DOVESI(1,11), V.R. SAUNDERS(2), C. ROETTI(1,11), R. ORLANDO(1,11),      *
 *  C.M. ZICOVICH-WILSON(1,3), F. PASCALE(4), B. CIVALLERI(1,11),              *
 *  K. DOLL(5), N.M. HARRISON(2,6), I.J. BUSH(7), Ph. D'ARCO(8),               *
 *  M. LLUNELL(9), M. CAUSA'(10), Y. NOEL(8), L. MASCHIO(1,11), A. ERBA(1,11)  *
 *  M. RE'RAT(14), S. CASASSA(1,11)                                            *
 *                                                                             *
 *        CONTRIBUTIONS TO THE CODE HAVE ALSO BEEN GIVEN BY                    *
 *                                                                             *
 *  M. FERRABONE(1,11), M. DE LA PIERRE(1,11), M. FERRERO(1,11),               *
 *  J. BAIMA(1,11), E. ALBANESE(1,11), M.F. PEINTINGER(12), R. BAST(13),       *
 *  B. KIRTMAN(15), V. LACIVITA(1,11), R. DEMICHELIS(1,16)                     *
 *  G. BRANDEBURG(17), S. SALUSTRO(1,11), G. SANSONE(1,11)                     *
 *  M.T. RUGGIERO(18)                                                          *
 *                                                                             *
 * (1) THEORETICAL CHEMISTRY GROUP - UNIVERSITA' DI TORINO - TORINO (ITALY)    *

 * (2) COMPUTATIONAL SCIENCE & ENGINEERING DEPARTMENT - STFC DARESBURY (UK)    *
 * (3) UNIVERSIDAD AUTONOMA DEL ESTADO DE MORELOS - CUERNAVACA (MEXICO)        *
 * (4) UNIVERSITE' DE LORRAINE - NANCY (FRANCE)                                *
 * (5) UNIVERSITAET STUTTGART- STUTTGART (GERMANY)                             *
 * (6) IMPERIAL COLLEGE - LONDON (UK)                                          *
 * (7) OXFORD E-RESEARCH CENTRE - OXFORD (UK)                                  *
 * (8) UPMC - SORBONNE UNIVERSITES - PARIS (FRANCE)                            *
 * (9) UNIVERSIDAD DE BARCELONA - BARCELONA (SPAIN)                            *
 *(10) UNIVERSITA' DI NAPOLI "FEDERICO II" - NAPOLI (ITALY)                    *
 *(11) NIS - NANOSTRUCTURED INTERFACES AND SURFACES - TORINO (ITALY)           *
 *(12) MPI FUER CHEMISCHE ENERGIEKONVERSION - MUELHEIM AN DER RUHR (GERMANY)   *
 *(13) UNIVERSITY OF TROMSO - TROMSO (NORWAY)                                  *
 *(14) UNIVERSITE' DE PAU ET DES PAYS DE L'ADOUR - PAU (FRANCE)                *
 *(15) UNIVERSITY OF CALIFORNIA SANTA BARBARA - SANTA BARBARA (USA)            *
 *(16) CURTIN UNIVERSITY - PERTH (AUSTRALIA)                                   *
 *(17) UNIVERSITY COLLEGE LONDON - LONDON (UK)                                 *
 *(18) CAMBRIDGE UNIVERSITY - CAMBRIDGE (UK)                                   *
 *                                                                             *
 *******************************************************************************
 EEEEEEEEEE STARTING  DATE 25 03 2019 TIME 17:52:41.5
 !drive by JGB                                                                   

 CRYSTAL CALCULATION
 (INPUT ACCORDING TO THE INTERNATIONAL TABLES FOR X-RAY CRYSTALLOGRAPHY)
 CRYSTAL FAMILY                       :  TRICLINIC   
 CRYSTAL CLASS  (GROTH - 1921)        :  TRICLINIC PEDIAL                     

 SPACE GROUP (NONCENTROSYMMETRIC)     :  P 1             

 LATTICE PARAMETERS  (ANGSTROMS AND DEGREES) - CONVENTIONAL CELL
        A           B           C        ALPHA        BETA       GAMMA
    10.27268    10.31030     5.42439    89.55217    89.63578    60.93167


 NUMBER OF IRREDUCIBLE ATOMS IN THE CONVENTIONAL CELL:   54

 INPUT COORDINATES

 ATOM AT. N.              COORDINATES
   1   8     2.436815625475E-02  7.820239058005E-01  9.498045065999E-01
   2   8     2.094012433523E-01  9.894747205682E-01  6.237983300417E-01
   3   8     8.197781263701E-01  1.799307839575E-01  2.904695174267E-01
   4   8     2.156495651124E-01  5.920577553182E-01  6.257968401613E-01
   5   8     2.168641482594E-01  1.825164701193E-01  3.071922885519E-01
   6   8     6.321964394181E-01  1.784259049219E-01  9.562845538202E-01
   7   8     8.885792922448E-01  4.487127044714E-01  7.898519711133E-01
   8   8     6.831310590344E-01  8.457163749521E-01  4.623588334393E-01
   9   8     4.976068616476E-01  6.452369812050E-01  1.145194040684E-01
  10   8     8.775521881931E-01  6.417990128144E-01  1.425884825735E-01
  11   8     4.899995120233E-01  8.541945872078E-01  8.124354823186E-01
  12   8     6.838456938141E-01  4.589200972680E-01  4.725893558830E-01
  13   8     4.910485345971E-01  4.208238204984E-02  1.403089690623E-01
  14   8     4.906162551783E-01  4.560010946520E-01  7.937197073759E-01
  15   8     7.375868574323E-02  4.570203615040E-01  4.639114833099E-01
  16   8     3.046524158236E-02  1.717179748569E-01  9.835806455696E-01
  17   8     8.272455131516E-01  9.865226624351E-01  6.346272672009E-01
  18   8     2.160640123667E-01  7.863634713224E-01  3.021172054635E-01
  19   1     9.956381832345E-02  7.076247324640E-01  8.378380562624E-01
  20   1     8.132004369672E-02  8.007783116454E-01  7.507244177851E-02
  21   1     2.127582226921E-01  6.450649129757E-02  5.124107450687E-01
  22   1     3.096823625743E-01  9.361069374599E-01  6.960164854233E-01
  23   1     9.080026743364E-01  1.581091806401E-01  1.899573222727E-01
  24   1     8.433527408660E-01  1.008520924252E-01  4.131067783664E-01
  25   1     3.188018925722E-01  5.345869670020E-01  6.889147896836E-01
  26   1     2.171571223396E-01  6.602767802045E-01  4.974937921739E-01
  27   1     3.198291858647E-01  1.373072732939E-01  2.405467549134E-01
  28   1     1.522793800562E-01  1.787823431641E-01  1.758109716806E-01
  29   1     6.981558585064E-01  1.799791100456E-01  8.714509025841E-02
  30   1     7.007974314599E-01  1.111017293293E-01  8.289289668353E-01
  31   1     9.624667051958E-01  4.529271268879E-01  6.757753857986E-01
  32   1     8.695385794661E-01  5.234486987892E-01  9.171128498457E-01
  33   1     7.500000000000E-01  7.640124856065E-01  3.530761745578E-01
  34   1     6.092259992987E-01  9.209592993674E-01  3.497217463532E-01
  35   1     4.957565476126E-01  5.696956011211E-01  5.177388053772E-03
  36   1     5.722994931090E-01  5.899178021335E-01  2.410439002886E-01
  37   1     9.246088926170E-01  6.966806213866E-01  7.040601166670E-02
  38   1     9.533630204333E-01  5.690516049480E-01  2.563409795092E-01
  39   1     5.119386754165E-01  7.670312270639E-01  9.161119470107E-01
  40   1     5.696114085443E-01  8.294559660120E-01  6.901341518429E-01
  41   1     7.373083761946E-01  3.578683101716E-01  4.048256332895E-01
  42   1     7.541232108326E-01  4.671608440190E-01  5.860443642727E-01
  43   1     5.381660834904E-01  9.819452448441E-02  7.001766097691E-02
  44   1     4.910364488620E-01  9.758351860465E-01  8.919140258851E-03
  45   1     5.360916337097E-01  3.520536345690E-01  8.531875209961E-01
  46   1     5.593375362894E-01  4.569652061122E-01  6.652855808264E-01
  47   1     1.381768877792E-01  3.546955543049E-01  4.038721116584E-01
  48   1     1.367180930874E-01  4.988699736799E-01  5.229741079384E-01
  49   1     8.671818322317E-02  1.000709308840E-01  8.526603950845E-01
  50   1     9.763519426728E-01  2.710978561847E-01  9.065379856687E-01
  51   1     9.066511422578E-01  9.182378485853E-01  7.465009370250E-01
  52   1     7.798242270597E-01  9.302951890436E-01  5.697438301452E-01
  53   1     2.053369937824E-01  8.660254037844E-01  4.139332514480E-01
  54   1     3.176888802321E-01  7.415151995267E-01  2.338499067879E-01

 *******************************************************************************

 << INFORMATION >>: FROM NOW ON, ALL COORDINATES REFER TO THE PRIMITIVE CELL

 *******************************************************************************

 LATTICE PARAMETERS  (ANGSTROMS AND DEGREES) - PRIMITIVE CELL
       A          B          C        ALPHA      BETA     GAMMA        VOLUME
   10.27268   10.31030    5.42439    89.55217  89.63578  60.93167    502.137461

 COORDINATES OF THE EQUIVALENT ATOMS (FRACTIONAL UNITS)

 N. ATOM EQUIV AT. N.          X                  Y                  Z

   1   1   1    8 O     2.43681562548E-02 -2.17976094200E-01 -5.01954934001E-02

   2   2   1    8 O     2.09401243352E-01 -1.05252794318E-02 -3.76201669958E-01

   3   3   1    8 O    -1.80221873630E-01  1.79930783958E-01  2.90469517427E-01

   4   4   1    8 O     2.15649565112E-01 -4.07942244682E-01 -3.74203159839E-01

   5   5   1    8 O     2.16864148259E-01  1.82516470119E-01  3.07192288552E-01

   6   6   1    8 O    -3.67803560582E-01  1.78425904922E-01 -4.37154461798E-02

   7   7   1    8 O    -1.11420707755E-01  4.48712704471E-01 -2.10148028887E-01

   8   8   1    8 O    -3.16868940966E-01 -1.54283625048E-01  4.62358833439E-01

   9   9   1    8 O     4.97606861648E-01 -3.54763018795E-01  1.14519404068E-01

  10  10   1    8 O    -1.22447811807E-01 -3.58200987186E-01  1.42588482574E-01

  11  11   1    8 O     4.89999512023E-01 -1.45805412792E-01 -1.87564517681E-01

  12  12   1    8 O    -3.16154306186E-01  4.58920097268E-01  4.72589355883E-01

  13  13   1    8 O     4.91048534597E-01  4.20823820498E-02  1.40308969062E-01

  14  14   1    8 O     4.90616255178E-01  4.56001094652E-01 -2.06280292624E-01

  15  15   1    8 O     7.37586857432E-02  4.57020361504E-01  4.63911483310E-01

  16  16   1    8 O     3.04652415824E-02  1.71717974857E-01 -1.64193544304E-02

  17  17   1    8 O    -1.72754486848E-01 -1.34773375649E-02 -3.65372732799E-01

  18  18   1    8 O     2.16064012367E-01 -2.13636528678E-01  3.02117205464E-01

  19  19   1    1 H     9.95638183235E-02 -2.92375267536E-01 -1.62161943738E-01

  20  20   1    1 H     8.13200436967E-02 -1.99221688355E-01  7.50724417785E-02

  21  21   1    1 H     2.12758222692E-01  6.45064912976E-02 -4.87589254931E-01

  22  22   1    1 H     3.09682362574E-01 -6.38930625401E-02 -3.03983514577E-01

  23  23   1    1 H    -9.19973256636E-02  1.58109180640E-01  1.89957322273E-01

  24  24   1    1 H    -1.56647259134E-01  1.00852092425E-01  4.13106778366E-01

  25  25   1    1 H     3.18801892572E-01 -4.65413032998E-01 -3.11085210316E-01

  26  26   1    1 H     2.17157122340E-01 -3.39723219796E-01  4.97493792174E-01

  27  27   1    1 H     3.19829185865E-01  1.37307273294E-01  2.40546754913E-01

  28  28   1    1 H     1.52279380056E-01  1.78782343164E-01  1.75810971681E-01

  29  29   1    1 H    -3.01844141494E-01  1.79979110046E-01  8.71450902584E-02

  30  30   1    1 H    -2.99202568540E-01  1.11101729329E-01 -1.71071033165E-01

  31  31   1    1 H    -3.75332948042E-02  4.52927126888E-01 -3.24224614201E-01

  32  32   1    1 H    -1.30461420534E-01 -4.76551301211E-01 -8.28871501543E-02

  33  33   1    1 H    -2.50000000000E-01 -2.35987514393E-01  3.53076174558E-01

  34  34   1    1 H    -3.90774000701E-01 -7.90407006326E-02  3.49721746353E-01

  35  35   1    1 H     4.95756547613E-01 -4.30304398879E-01  5.17738805377E-03

  36  36   1    1 H    -4.27700506891E-01 -4.10082197867E-01  2.41043900289E-01

  37  37   1    1 H    -7.53911073830E-02 -3.03319378613E-01  7.04060116667E-02

  38  38   1    1 H    -4.66369795667E-02 -4.30948395052E-01  2.56340979509E-01

  39  39   1    1 H    -4.88061324584E-01 -2.32968772936E-01 -8.38880529893E-02

  40  40   1    1 H    -4.30388591456E-01 -1.70544033988E-01 -3.09865848157E-01

  41  41   1    1 H    -2.62691623805E-01  3.57868310172E-01  4.04825633289E-01

  42  42   1    1 H    -2.45876789167E-01  4.67160844019E-01 -4.13955635727E-01

  43  43   1    1 H    -4.61833916510E-01  9.81945244844E-02  7.00176609769E-02

  44  44   1    1 H     4.91036448862E-01 -2.41648139535E-02  8.91914025885E-03

  45  45   1    1 H    -4.63908366290E-01  3.52053634569E-01 -1.46812479004E-01

  46  46   1    1 H    -4.40662463711E-01  4.56965206112E-01 -3.34714419174E-01

  47  47   1    1 H     1.38176887779E-01  3.54695554305E-01  4.03872111658E-01

  48  48   1    1 H     1.36718093087E-01  4.98869973680E-01 -4.77025892062E-01

  49  49   1    1 H     8.67181832232E-02  1.00070930884E-01 -1.47339604916E-01

  50  50   1    1 H    -2.36480573272E-02  2.71097856185E-01 -9.34620143313E-02

  51  51   1    1 H    -9.33488577422E-02 -8.17621514147E-02 -2.53499062975E-01

  52  52   1    1 H    -2.20175772940E-01 -6.97048109564E-02 -4.30256169855E-01

  53  53   1    1 H     2.05336993782E-01 -1.33974596216E-01  4.13933251448E-01

  54  54   1    1 H     3.17688880232E-01 -2.58484800473E-01  2.33849906788E-01

 NUMBER OF SYMMETRY OPERATORS         :    1
 *******************************************************************************
 * GEOMETRY EDITING - INPUT COORDINATES ARE GIVEN IN ANGSTROM         
 *******************************************************************************

 GCALCO - MAX INDICES DIRECT LATTICE VECTOR    12    12    21
 NO.OF VECTORS CREATED 6999 STARS 3500 RMAX   178.09264 BOHR

 GEOMETRY FOR WAVE FUNCTION - DIMENSIONALITY OF THE SYSTEM    3
 (NON PERIODIC DIRECTION: LATTICE PARAMETER FORMALLY SET TO 500)
 *******************************************************************************
 LATTICE PARAMETERS (ANGSTROMS AND DEGREES) - BOHR = 0.5291772083 ANGSTROM
 PRIMITIVE CELL - CENTRING CODE 1/0 VOLUME=   502.137461 - DENSITY  1.072 g/cm^3
         A              B              C           ALPHA      BETA       GAMMA 
    10.27267698    10.31029890     5.42439250    89.552165  89.635778  60.931669
 *******************************************************************************
 ATOMS IN THE ASYMMETRIC UNIT   54 - ATOMS IN THE UNIT CELL:   54
     ATOM                 X/A                 Y/B                 Z/C    
 *******************************************************************************
      1 T   8 O     2.436815625475E-02 -2.179760941995E-01 -5.019549340005E-02
      2 T   8 O     2.094012433523E-01 -1.052527943179E-02 -3.762016699583E-01
      3 T   8 O    -1.802218736299E-01  1.799307839575E-01  2.904695174267E-01
      4 T   8 O     2.156495651124E-01 -4.079422446818E-01 -3.742031598387E-01
      5 T   8 O     2.168641482594E-01  1.825164701193E-01  3.071922885519E-01
      6 T   8 O    -3.678035605819E-01  1.784259049219E-01 -4.371544617983E-02
      7 T   8 O    -1.114207077552E-01  4.487127044714E-01 -2.101480288867E-01
      8 T   8 O    -3.168689409656E-01 -1.542836250479E-01  4.623588334393E-01
      9 T   8 O     4.976068616476E-01 -3.547630187950E-01  1.145194040684E-01
     10 T   8 O    -1.224478118069E-01 -3.582009871856E-01  1.425884825735E-01
     11 T   8 O     4.899995120233E-01 -1.458054127922E-01 -1.875645176814E-01
     12 T   8 O    -3.161543061859E-01  4.589200972680E-01  4.725893558830E-01
     13 T   8 O     4.910485345971E-01  4.208238204984E-02  1.403089690623E-01
     14 T   8 O     4.906162551783E-01  4.560010946520E-01 -2.062802926241E-01
     15 T   8 O     7.375868574323E-02  4.570203615040E-01  4.639114833099E-01
     16 T   8 O     3.046524158236E-02  1.717179748569E-01 -1.641935443040E-02
     17 T   8 O    -1.727544868484E-01 -1.347733756485E-02 -3.653727327991E-01
     18 T   8 O     2.160640123667E-01 -2.136365286776E-01  3.021172054635E-01
     19 T   1 H     9.956381832345E-02 -2.923752675360E-01 -1.621619437376E-01
     20 T   1 H     8.132004369672E-02 -1.992216883546E-01  7.507244177851E-02
     21 T   1 H     2.127582226921E-01  6.450649129757E-02 -4.875892549313E-01
     22 T   1 H     3.096823625743E-01 -6.389306254008E-02 -3.039835145767E-01
     23 T   1 H    -9.199732566356E-02  1.581091806401E-01  1.899573222727E-01
     24 T   1 H    -1.566472591340E-01  1.008520924252E-01  4.131067783664E-01
     25 T   1 H     3.188018925722E-01 -4.654130329980E-01 -3.110852103164E-01
     26 T   1 H     2.171571223396E-01 -3.397232197955E-01  4.974937921739E-01
     27 T   1 H     3.198291858647E-01  1.373072732939E-01  2.405467549134E-01
     28 T   1 H     1.522793800562E-01  1.787823431641E-01  1.758109716806E-01
     29 T   1 H    -3.018441414936E-01  1.799791100456E-01  8.714509025841E-02
     30 T   1 H    -2.992025685401E-01  1.111017293293E-01 -1.710710331647E-01
     31 T   1 H    -3.753329480422E-02  4.529271268879E-01 -3.242246142014E-01
     32 T   1 H    -1.304614205339E-01 -4.765513012108E-01 -8.288715015429E-02
     33 T   1 H    -2.500000000000E-01 -2.359875143935E-01  3.530761745578E-01
     34 T   1 H    -3.907740007013E-01 -7.904070063259E-02  3.497217463532E-01
     35 T   1 H     4.957565476126E-01 -4.303043988789E-01  5.177388053772E-03
     36 T   1 H    -4.277005068910E-01 -4.100821978665E-01  2.410439002886E-01
     37 T   1 H    -7.539110738299E-02 -3.033193786134E-01  7.040601166670E-02
     38 T   1 H    -4.663697956667E-02 -4.309483950520E-01  2.563409795092E-01
     39 T   1 H    -4.880613245835E-01 -2.329687729361E-01 -8.388805298934E-02
     40 T   1 H    -4.303885914557E-01 -1.705440339880E-01 -3.098658481571E-01
     41 T   1 H    -2.626916238054E-01  3.578683101716E-01  4.048256332895E-01
     42 T   1 H    -2.458767891674E-01  4.671608440190E-01 -4.139556357273E-01
     43 T   1 H    -4.618339165096E-01  9.819452448441E-02  7.001766097691E-02
     44 T   1 H     4.910364488620E-01 -2.416481395346E-02  8.919140258851E-03
     45 T   1 H    -4.639083662903E-01  3.520536345690E-01 -1.468124790039E-01
     46 T   1 H    -4.406624637106E-01  4.569652061122E-01 -3.347144191736E-01
     47 T   1 H     1.381768877792E-01  3.546955543049E-01  4.038721116584E-01
     48 T   1 H     1.367180930874E-01  4.988699736799E-01 -4.770258920616E-01
     49 T   1 H     8.671818322317E-02  1.000709308840E-01 -1.473396049155E-01
     50 T   1 H    -2.364805732725E-02  2.710978561847E-01 -9.346201433127E-02
     51 T   1 H    -9.334885774222E-02 -8.176215141465E-02 -2.534990629750E-01
     52 T   1 H    -2.201757729403E-01 -6.970481095636E-02 -4.302561698548E-01
     53 T   1 H     2.053369937824E-01 -1.339745962156E-01  4.139332514480E-01
     54 T   1 H     3.176888802321E-01 -2.584848004733E-01  2.338499067879E-01

 T = ATOM BELONGING TO THE ASYMMETRIC UNIT

 ****    1 SYMMOPS - TRANSLATORS IN FRACTIONAL UNITS
 **** MATRICES AND TRANSLATORS IN THE CRYSTALLOGRAPHIC REFERENCE FRAME
   V INV                    ROTATION MATRICES                   TRANSLATORS
   1   1  1.00 -0.00  0.00  0.00  1.00  0.00 -0.00  0.00  1.00  0.00  0.00  0.00

 DIRECT LATTICE VECTORS CARTESIAN COMPONENTS (ANGSTROM)
          X                    Y                    Z
   0.897873984213E+01   0.499100422589E+01   0.000000000000E+00
   0.000000000000E+00   0.103102989000E+02   0.000000000000E+00
   0.158836166400E-01   0.423976792207E-01   0.542420354905E+01


 CARTESIAN COORDINATES - PRIMITIVE CELL
 *******************************************************************************
 *      ATOM          X(ANGSTROM)         Y(ANGSTROM)         Z(ANGSTROM)
 *******************************************************************************
    1     8 O     2.179980494694E-01 -2.127905285834E+00 -2.722705734471E-01
    2     8 O     1.874183843573E+00  9.206536358050E-01 -2.040594433348E+00
    3     8 O    -1.613551610723E+00  9.679672644518E-01  1.575565787318E+00
    4     8 O     1.930317642675E+00 -3.145563931353E+00 -2.029754107664E+00
    5     8 O     1.952046092851E+00  2.977193481619E+00  1.666273501805E+00
    6     8 O    -3.303106842861E+00  2.061852621997E-03 -2.371214783171E-01
    7     8 O    -1.003755458688E+00  4.061351091352E+00 -1.139885684114E+00
    8     8 O    -2.837739854519E+00 -3.152601571527E+00  2.507928425278E+00
    9     8 O     4.469701536702E+00 -1.169299456169E+00  6.211765579834E-01
   10     8 O    -1.097162225657E+00 -4.298251369593E+00  7.734289532295E-01
   11     8 O     4.396598938331E+00  9.343399478130E-01 -1.017388122484E+00
   12     8 O    -2.831160837054E+00  3.173712587757E+00  2.563420861426E+00
   13     8 O    -4.567514186245E+00 -2.100348202579E+00  7.610644079519E-01
   14     8 O    -4.576900601650E+00  2.150425355908E+00 -1.118906295352E+00
   15     8 O     6.696286425413E-01  5.099815212989E+00  2.516350314217E+00
   16     8 O     2.732786796643E-01  1.921819654235E+00 -8.906192057456E-02
   17     8 O    -1.556921034390E+00 -1.016664708493E+00 -1.981856073977E+00
   18     8 O     1.944781270158E+00 -1.111470999475E+00  1.638745218106E+00
   19     1 H     8.913819042670E-01 -2.524428251338E+00 -8.795993907431E-01
   20     1 H     7.313439381886E-01 -1.644983575254E+00  4.072082051312E-01
   21     1 H     1.902556050022E+00  1.706285741995E+00 -2.644783367079E+00
   22     1 H     2.775729009639E+00  8.739812123279E-01 -1.648868458621E+00
   23     1 H    -8.230028440194E-01  1.179047619691E+00  1.030367181640E+00
   24     1 H    -1.399933357047E+00  2.755028539554E-01  2.240775253353E+00
   25     1 H     2.857498096360E+00 -3.220595180073E+00 -1.687389501857E+00
   26     1 H     1.957699307028E+00 -2.397723241868E+00  2.698507593142E+00
   27     1 H     2.875483806237E+00  3.022146471170E+00  1.304774561715E+00
   28     1 H     1.370069450920E+00  2.610780402621E+00  9.536344965526E-01
   29     1 H    -2.708795840135E+00  3.528277841539E-01  4.726927078623E-01
   30     1 H    -2.689179249726E+00 -3.550822610769E-01 -9.279241052324E-01
   31     1 H    -3.421515489421E-01  4.468738853965E+00 -1.758660303042E+00
   32     1 H    -1.172695702125E+00  4.742264819329E+00 -4.495967740379E-01
   33     1 H    -2.239076833930E+00 -3.665883256148E+00  1.915157039123E+00
   34     1 H    -3.503103243214E+00 -2.750460547237E+00  1.896961937751E+00
   35     1 H     4.451351301691E+00 -1.962024437041E+00  2.808320665610E-02
   36     1 H     5.142356909312E+00 -1.361501143028E+00  1.307471179423E+00
   37     1 H    -6.757988375031E-01 -3.500605739712E+00  3.818965383573E-01
   38     1 H    -4.146696847040E-01 -4.665103862941E+00  1.390445650822E+00
   39     1 H     4.595231736013E+00  1.495537503018E-01 -4.550258747480E-01
   40     1 H     5.109470858084E+00  1.071435388300E+00 -1.680775433305E+00
   41     1 H    -2.352209653689E+00  2.395797907529E+00  2.195856636837E+00
   42     1 H    -2.214238835775E+00  3.571845084174E+00 -2.245379628463E+00
   43     1 H    -4.145574452925E+00 -1.289631544851E+00  3.797900451674E-01
   44     1 H     4.409030195538E+00  2.201996687461E+00  4.837923224657E-02
   45     1 H    -4.167644444640E+00  1.308185076267E+00 -7.963407696584E-01
   46     1 H    -3.961910095366E+00  2.497908528772E+00 -1.815559140401E+00
   47     1 H     1.247069277357E+00  4.363781854447E+00  2.190684541422E+00
   48     1 H     1.219979293146E+00 -4.504664569522E+00 -2.587485536711E+00
   49     1 H     7.762797209422E-01  1.458325170238E+00 -7.992000078989E-01
   50     1 H    -2.138142693191E-01  2.673109801856E+00 -5.069569898375E-01
   51     1 H    -8.421815901619E-01 -1.319644535220E+00 -1.375030517071E+00
   52     1 H    -1.983735008829E+00 -1.835817511984E+00 -2.333797043529E+00
   53     1 H     1.850242204217E+00 -3.389305190761E-01  2.245258211576E+00
   54     1 H     2.856160188611E+00 -1.069554316896E+00  1.268449494345E+00

 *******************************************************************************
 STARTING BASIS SET HANDLING 
 *******************************************************************************

 Loading internal basis set: DEF2-MSVP           

 Please cite in your publication:
 Fully Optimized Contracted Gaussian Basis Sets for Atoms Li to Kr. A. Schäfer, 
 H. Horn and R. Ahlrichs; J. Chem. Phys. 97, 2571 (1992).                       
                                                                                
                    
 S. Grimme, J. G. Brandenburg, C. Bannwarth, and A. Hansen, J. Chem. Phys., 143,
  054107 (2015).                                                                
                                                                                
                    

 *******************************************************************************
 LOCAL ATOMIC FUNCTIONS BASIS SET
 *******************************************************************************
   ATOM   X(AU)   Y(AU)   Z(AU)  N. TYPE  EXPONENT  S COEF   P COEF   D/F/G COEF
 *******************************************************************************
   1 O    0.412  -4.021  -0.515
                                  1 S  
                                         6.773E+03 1.727E-03 0.000E+00 0.000E+00
                                         1.017E+03 1.325E-02 0.000E+00 0.000E+00
                                         2.313E+02 6.603E-02 0.000E+00 0.000E+00
                                         6.501E+01 2.353E-01 0.000E+00 0.000E+00
                                         2.050E+01 5.498E-01 0.000E+00 0.000E+00
                                  2 S  
                                         6.716E+00 1.000E+00 0.000E+00 0.000E+00
                                  3 S  
                                         1.147E+00 1.000E+00 0.000E+00 0.000E+00
                                  4 S  
                                         3.342E-01 1.000E+00 0.000E+00 0.000E+00
                           5-     7 P  
                                         1.769E+01 0.000E+00 4.359E-02 0.000E+00
                                         3.854E+00 0.000E+00 2.318E-01 0.000E+00
                                         1.047E+00 0.000E+00 5.146E-01 0.000E+00
                           8-    10 P  
                                         2.759E-01 0.000E+00 1.000E+00 0.000E+00
                          11-    15 D  
                                         8.000E-01 0.000E+00 0.000E+00 1.000E+00
   2 O    3.542   1.740  -3.856
   3 O   -3.049   1.829   2.977
   4 O    3.648  -5.944  -3.836
   5 O    3.689   5.626   3.149
   6 O   -6.242   0.004  -0.448
   7 O   -1.897   7.675  -2.154
   8 O   -5.363  -5.958   4.739
   9 O    8.447  -2.210   1.174
  10 O   -2.073  -8.123   1.462
  11 O    8.308   1.766  -1.923
  12 O   -5.350   5.997   4.844
  13 O   -8.631  -3.969   1.438
  14 O   -8.649   4.064  -2.114
  15 O    1.265   9.637   4.755
  16 O    0.516   3.632  -0.168
  17 O   -2.942  -1.921  -3.745
  18 O    3.675  -2.100   3.097
  19 H    1.684  -4.770  -1.662
                                271 S  
                                         1.874E+01 1.968E-02 0.000E+00 0.000E+00
                                         2.826E+00 1.380E-01 0.000E+00 0.000E+00
                                         6.401E-01 4.783E-01 0.000E+00 0.000E+00
                                272 S  
                                         1.756E-01 1.000E+00 0.000E+00 0.000E+00
  20 H    1.382  -3.109   0.770
  21 H    3.595   3.224  -4.998
  22 H    5.245   1.652  -3.116
  23 H   -1.555   2.228   1.947
  24 H   -2.645   0.521   4.234
  25 H    5.400  -6.086  -3.189
  26 H    3.700  -4.531   5.099
  27 H    5.434   5.711   2.466
  28 H    2.589   4.934   1.802
  29 H   -5.119   0.667   0.893
  30 H   -5.082  -0.671  -1.754
  31 H   -0.647   8.445  -3.323
  32 H   -2.216   8.962  -0.850
  33 H   -4.231  -6.928   3.619
  34 H   -6.620  -5.198   3.585
  35 H    8.412  -3.708   0.053
  36 H    9.718  -2.573   2.471
  37 H   -1.277  -6.615   0.722
  38 H   -0.784  -8.816   2.628
  39 H    8.684   0.283  -0.860
  40 H    9.656   2.025  -3.176
  41 H   -4.445   4.527   4.150
  42 H   -4.184   6.750  -4.243
  43 H   -7.834  -2.437   0.718
  44 H    8.332   4.161   0.091
  45 H   -7.876   2.472  -1.505
  46 H   -7.487   4.720  -3.431
  47 H    2.357   8.246   4.140
  48 H    2.305  -8.513  -4.890
  49 H    1.467   2.756  -1.510
  50 H   -0.404   5.051  -0.958
  51 H   -1.591  -2.494  -2.598
  52 H   -3.749  -3.469  -4.410
  53 H    3.496  -0.640   4.243
  54 H    5.397  -2.021   2.397

 *******************************************************************************
 FINISHED BASIS SET HANDLING 
 *******************************************************************************

 INFORMATION **** SET_MPP **** PCRYSTAL CALCULATION
 INFORMATION **** READM2 **** NEW DEFAULT: FOCK/KS MATRIX MIXING SET TO 30 %
 INFORMATION **** READM2 **** NEW DEFAULT: FULL DIRECT SCF MODE
 INFORMATION **** READM2 **** NEW DEFAULT: COULOMB BIPOLAR BUFFER SET TO 32 Mb
 INFORMATION **** READM2 **** NEW DEFAULT: EXCHANGE BIPOLAR BUFFER SET TO 32 Mb

 *******************************************************************************
 NEW DEFAULT: DFT INTEGRATION GRID INCREASED TO XLGRID
 NEW DEFAULT: DIIS ACCELERATOR ACTIVE
 USE KEYWORD NODIIS TO TURN IT OFF
 *******************************************************************************

 INFORMATION **** RDDFTP **** HSE-3c calculation
 INFORMATION **** RDDFTP **** HSE screened hybrid functional combined with D3 and gCP

PLEASE CITE:
(1) HSE-3c Reference
 J. G. Brandenburg, E. Caldeweyer, and S. Grimme, 
 Phys. Chem. Chem. Phys. 18, 15519 (2016)
(2) DFT-D3 Reference
 S. Grimme, J. Antony, S. Ehrlich,
 and H. Krieg, J. Chem. Phys. 132, 154104 (2010)
(3) gCP Reference
 H. Kruse and S. Grimme J. Chem. Phys, 136, 154101 (2012)
 J. G. Brandenburg, M. Alessio, B. Civalleri, M. F. Peintinger
 T. Bredow, and S. Grimme, J. Phys. Chem. A, 117, 9282 (2013) 

 WARNING **** RDDFTP **** HSE3c-HJS ACTIVE
 RANGE SEPARATION - OMEGA:   0.110000000000000     
 WARNING **** RDDFTP **** HSE-3c has to be combined with def2-mSVP basis set
 WARNING **** RDDFTP **** Note: Harmonic frequencies are scaled by 0.95
 WARNING **** RDDFTP **** as recommended in original publication
 INFORMATION **** BIPOSIZE **** COULOMB BIPOLAR BUFFER SET TO    60000000
 INFORMATION **** EXCHSIZE **** EXCHANGE BIPOLAR BUFFER SIZE SET TO    40000000
 *******************************************************************************
 N. OF ATOMS PER CELL        54  COULOMB OVERLAP TOL         (T1) 10**   -6
 NUMBER OF SHELLS           198  COULOMB PENETRATION TOL     (T2) 10**   -6
 NUMBER OF AO               342  EXCHANGE OVERLAP TOL        (T3) 10**   -6
 N. OF ELECTRONS PER CELL   180  EXCHANGE PSEUDO OVP (F(G))  (T4) 10**   -6
 CORE ELECTRONS PER CELL     36  EXCHANGE PSEUDO OVP (P(G))  (T5) 10**  -12
 N. OF SYMMETRY OPERATORS     1  POLE ORDER IN MONO ZONE                  4
 *******************************************************************************
 TYPE OF CALCULATION :  RESTRICTED CLOSED SHELL
 KOHN-SHAM HAMILTONIAN

 (EXCHANGE)[CORRELATION] FUNCTIONAL:(HSE-3c)[PBEh-3c]

 RANGE-SEPARATED HYBRID FUNCTIONAL 
 OMEGA (SHORT-RANGE)[LONG-RANGE]:(    0.1100)[    0.0000]

 HYBRID EXCHANGE - PERCENTAGE OF FOCK EXCHANGE    42.0000

 CAPPA:IS1  1;IS2  1;IS3  2; K PTS MONK NET   2; SYMMOPS:K SPACE   2;G SPACE   1

 *******************************************************************************
 MAX NUMBER OF SCF CYCLES      50  CONVERGENCE ON DELTAP        10**-16
 WEIGHT OF F(I) IN F(I+1)      30% CONVERGENCE ON ENERGY        10**- 6
 S(K) EIGENV. THRESHOLD  10*10.**-4
 SHRINK. FACT.(MONKH.)    1  1  2  NUMBER OF K POINTS IN THE IBZ      2
 SHRINKING FACTOR(GILAT NET)    1  NUMBER OF K POINTS(GILAT NET)      2
 *******************************************************************************
 *** K POINTS COORDINATES (OBLIQUE COORDINATES IN UNITS OF IS =  1)
   1-R(  0  0  0)   2-R(  0  0  1)

 DIRECT LATTICE VECTORS COMPON. (A.U.)     RECIP. LATTICE VECTORS COMPON. (A.U.) 
        X            Y            Z              X            Y            Z
   16.9673593    9.4316311    0.0000000      0.3703101    0.0000000   -0.0010844
    0.0000000   19.4836413    0.0000000     -0.1792595    0.3224852   -0.0019957
    0.0300157    0.0801200   10.2502592      0.0000000    0.0000000    0.6129782

 DISK SPACE FOR EIGENVECTORS (FTN 10)      233928 REALS

 SYMMETRY ADAPTION OF THE BLOCH FUNCTIONS DISABLED
 TTTTTTTTTTTTTTTTTTTTTTTTTTTTTT gordsh1     TELAPSE        0.34 TCPU        0.05

 MATRIX SIZE: P(G)  186082, F(G)   33642, P(G) IRR   93716, F(G) IRR   33930
 MAX G-VECTOR INDEX FOR 1- AND 2-ELECTRON INTEGRALS  43

 TTTTTTTTTTTTTTTTTTTTTTTTTTTTTT INPUT       TELAPSE        0.41 TCPU        0.12

 NEIGHBORS OF THE NON-EQUIVALENT ATOMS

 N = NUMBER OF NEIGHBORS AT DISTANCE R
    ATOM  N     R/ANG      R/AU   NEIGHBORS (ATOM LABELS AND CELL INDICES)
   1 O    1     0.9790     1.8500   20 H    0 0 0
   1 O    1     0.9897     1.8703   19 H    0 0 0
   1 O    1     1.7301     3.2695   51 H    0 0 0
   1 O    1     1.7638     3.3332   37 H    0 0 0
   1 O    1     2.6564     5.0199    4 O    0 0 0
   1 O    1     2.7033     5.1085   17 O    0 0 0

   2 O    1     0.9841     1.8596   22 H    0 0 0
   2 O    1     0.9915     1.8737   21 H    0 0 0
   2 O    1     1.7299     3.2691   53 H    0 0-1
   2 O    1     1.7423     3.2924   49 H    0 0 0
   2 O    1     2.6476     5.0033    5 O    0 0-1
   2 O    1     2.7113     5.1236   18 O    0 0-1

   3 O    1     0.9832     1.8581   23 H    0 0 0
   3 O    1     0.9837     1.8589   24 H    0 0 0
   3 O    1     1.6716     3.1589   29 H    0 0 0
   3 O    1     1.7231     3.2562   41 H    0 0 0
   3 O    1     2.6596     5.0259    6 O    0 0 0
   3 O    1     2.6909     5.0851   16 O    0 0 0

   4 O    1     0.9910     1.8728   26 H    0 0-1
   4 O    1     0.9912     1.8731   25 H    0 0 0
   4 O    1     1.6318     3.0837   48 H    0 0 0
   4 O    1     1.6697     3.1554   19 H    0 0 0
   4 O    1     2.6156     4.9428   15 O    0-1-1
   4 O    1     2.6341     4.9778   14 O    1-1 0

   5 O    1     0.9904     1.8715   28 H    0 0 0
   5 O    1     0.9927     1.8759   27 H    0 0 0
   5 O    1     1.6415     3.1020   47 H    0 0 0
   5 O    1     1.6582     3.1334   21 H    0 0 1
   5 O    1     2.6216     4.9541   15 O    0 0 0
   5 O    1     2.6219     4.9547   13 O    1 0 0

   6 O    1     0.9900     1.8708   29 H    0 0 0
   6 O    1     0.9908     1.8723   30 H    0 0 0
   6 O    1     1.6610     3.1388   43 H    0 0 0
   6 O    1     1.6632     3.1429   45 H    0 0 0
   6 O    1     2.6486     5.0052   13 O    0 0 0
   6 O    1     2.6487     5.0053   14 O    0 0 0

   7 O    1     0.9842     1.8599   32 H    0 0 0
   7 O    1     0.9933     1.8770   31 H    0 0 0
   7 O    1     1.7108     3.2330   42 H    0 0 0
   7 O    1     1.7181     3.2467   50 H    0 0 0
   7 O    1     2.6201     4.9514   15 O    0 0-1
   7 O    1     2.6878     5.0792   12 O    0 0-1

   8 O    1     0.9865     1.8643   33 H    0 0 0
   8 O    1     0.9888     1.8685   34 H    0 0 0
   8 O    1     1.7156     3.2421   52 H    0 0 1
   8 O    1     1.7558     3.3181   40 H   -1 0 1
   8 O    1     2.6741     5.0533   13 O    0 0 0
   8 O    1     2.7018     5.1057   17 O    0 0 1

   9 O    1     0.9800     1.8519   36 H    0 0 0
   9 O    1     0.9902     1.8712   35 H    0 0 0
   9 O    1     1.7069     3.2255   39 H    0 0 0
   9 O    1     1.7414     3.2907   54 H    0 0 0
   9 O    1     2.6516     5.0107   14 O    1-1 0
   9 O    1     2.6675     5.0408   11 O    0 0 0

  10 O    1     0.9834     1.8584   37 H    0 0 0
  10 O    1     0.9905     1.8718   38 H    0 0 0
  10 O    1     1.7342     3.2771   33 H    0 0 0
  10 O    1     1.7646     3.3346   32 H    0-1 0
  10 O    1     2.6441     4.9967   15 O    0-1 0
  10 O    1     2.7112     5.1234    8 O    0 0 0

  11 O    1     0.9834     1.8583   40 H    0 0 0
  11 O    1     0.9857     1.8627   39 H    0 0 0
  11 O    1     1.6562     3.1297   44 H    0 0 0
  11 O    1     1.7406     3.2892   22 H    0 0 0
  11 O    1     2.6439     4.9963   13 O    1 0 0
  11 O    1     2.6675     5.0408    9 O    0 0 0

  12 O    1     0.9847     1.8608   41 H    0 0 0
  12 O    1     0.9865     1.8643   42 H    0 0 1
  12 O    1     1.6543     3.1261   46 H    0 0 1
  12 O    1     1.7896     3.3819   36 H   -1 1 0
  12 O    1     2.6436     4.9957   14 O    0 0 1
  12 O    1     2.6878     5.0792    7 O    0 0 1

  13 O    1     0.9903     1.8714   43 H    0 0 0
  13 O    1     0.9910     1.8728   44 H   -1 0 0
  13 O    1     1.6344     3.0887   27 H   -1 0 0
  13 O    1     1.6870     3.1879   34 H    0 0 0
  13 O    1     2.6219     4.9547    5 O   -1 0 0
  13 O    1     2.6439     4.9963   11 O   -1 0 0

  14 O    1     0.9904     1.8716   45 H    0 0 0
  14 O    1     0.9921     1.8748   46 H    0 0 0
  14 O    1     1.6465     3.1114   25 H   -1 1 0
  14 O    1     1.6657     3.1477   35 H   -1 1 0
  14 O    1     2.6341     4.9778    4 O   -1 1 0
  14 O    1     2.6436     4.9957   12 O    0 0-1

  15 O    1     0.9906     1.8719   47 H    0 0 0
  15 O    1     0.9915     1.8737   48 H    0 1 1
  15 O    1     1.6306     3.0815   31 H    0 0 1
  15 O    1     1.6555     3.1285   38 H    0 1 0
  15 O    1     2.6156     4.9428    4 O    0 1 1
  15 O    1     2.6201     4.9514    7 O    0 0 1

  16 O    1     0.9860     1.8632   49 H    0 0 0
  16 O    1     0.9881     1.8672   50 H    0 0 0
  16 O    1     1.6628     3.1422   28 H    0 0 0
  16 O    1     1.7340     3.2767   23 H    0 0 0
  16 O    1     2.6483     5.0045    5 O    0 0 0
  16 O    1     2.6909     5.0851    3 O    0 0 0

  17 O    1     0.9853     1.8620   51 H    0 0 0
  17 O    1     0.9885     1.8679   52 H    0 0 0
  17 O    1     1.6824     3.1793   30 H    0 0 0
  17 O    1     1.7394     3.2870   24 H    0 0-1
  17 O    1     2.6704     5.0463    6 O    0 0 0
  17 O    1     2.6949     5.0926    3 O    0 0-1

  18 O    1     0.9846     1.8607   54 H    0 0 0
  18 O    1     0.9867     1.8646   53 H    0 0 0
  18 O    1     1.6666     3.1495   26 H    0 0 0
  18 O    1     1.8094     3.4192   20 H    0 0 0
  18 O    1     2.6551     5.0173    4 O    0 0 1
  18 O    1     2.7113     5.1236    2 O    0 0 1

  19 H    1     0.9897     1.8703    1 O    0 0 0
  19 H    1     1.5668     2.9609   20 H    0 0 0
  19 H    1     1.6697     3.1554    4 O    0 0 0
  19 H    1     2.1257     4.0170   26 H    0 0-1
  19 H    1     2.1685     4.0978   51 H    0 0 0
  19 H    1     2.2361     4.2257   37 H    0 0 0

  20 H    1     0.9790     1.8500    1 O    0 0 0
  20 H    1     1.5668     2.9609   19 H    0 0 0
  20 H    1     1.8094     3.4192   18 O    0 0 0
  20 H    1     2.3290     4.4011   37 H    0 0 0
  20 H    1     2.3638     4.4670   54 H    0 0 0
  20 H    1     2.3996     4.5346   51 H    0 0 0

  21 H    1     0.9915     1.8737    2 O    0 0 0
  21 H    1     1.5643     2.9561   22 H    0 0 0
  21 H    1     1.6582     3.1334    5 O    0 0-1
  21 H    1     2.0922     3.9537   28 H    0 0-1
  21 H    1     2.1559     4.0742   53 H    0 0-1
  21 H    1     2.1708     4.1022   27 H    0 0-1

  22 H    1     0.9841     1.8596    2 O    0 0 0
  22 H    1     1.5643     2.9561   21 H    0 0 0
  22 H    1     1.7406     3.2892   11 O    0 0 0
  22 H    1     2.1916     4.1415   53 H    0 0-1
  22 H    1     2.2497     4.2513   49 H    0 0 0
  22 H    1     2.2936     4.3343   39 H    0 0 0

  23 H    1     0.9832     1.8581    3 O    0 0 0
  23 H    1     1.6169     3.0555   24 H    0 0 0
  23 H    1     1.7340     3.2767   16 O    0 0 0
  23 H    1     2.1330     4.0309   29 H    0 0 0
  23 H    1     2.2286     4.2115   50 H    0 0 0
  23 H    1     2.2754     4.2998   41 H    0 0 0

  24 H    1     0.9837     1.8589    3 O    0 0 0
  24 H    1     1.6169     3.0555   23 H    0 0 0
  24 H    1     1.7394     3.2870   17 O    0 0 1
  24 H    1     2.2012     4.1596   29 H    0 0 0
  24 H    1     2.3076     4.3607   52 H    0 0 1
  24 H    1     2.3248     4.3932   41 H    0 0 0

  25 H    1     0.9912     1.8731    4 O    0 0 0
  25 H    1     1.5892     3.0032   26 H    0 0-1
  25 H    1     1.6465     3.1114   14 O    1-1 0
  25 H    1     2.1997     4.1568   46 H    1-1 0
  25 H    1     2.2367     4.2267   19 H    0 0 0
  25 H    1     2.2673     4.2845   48 H    0 0 0

  26 H    1     0.9910     1.8728    4 O    0 0 1
  26 H    1     1.5892     3.0032   25 H    0 0 1
  26 H    1     1.6666     3.1495   18 O    0 0 0
  26 H    1     2.1108     3.9889   53 H    0 0 0
  26 H    1     2.1257     4.0170   19 H    0 0 1
  26 H    1     2.1486     4.0602   54 H    0 0 0

  27 H    1     0.9927     1.8759    5 O    0 0 0
  27 H    1     1.5996     3.0228   28 H    0 0 0
  27 H    1     1.6344     3.0887   13 O    1 0 0
  27 H    1     2.1454     4.0543   44 H    0 0 0
  27 H    1     2.1708     4.1022   21 H    0 0 1
  27 H    1     2.2692     4.2882   43 H    1 0 0

  28 H    1     0.9904     1.8715    5 O    0 0 0
  28 H    1     1.5996     3.0228   27 H    0 0 0
  28 H    1     1.6628     3.1422   16 O    0 0 0
  28 H    1     2.0922     3.9537   21 H    0 0 1
  28 H    1     2.1491     4.0611   47 H    0 0 0
  28 H    1     2.1554     4.0732   50 H    0 0 0

  29 H    1     0.9900     1.8708    6 O    0 0 0
  29 H    1     1.5695     2.9659   30 H    0 0 0
  29 H    1     1.6716     3.1589    3 O    0 0 0
  29 H    1     2.1330     4.0309   23 H    0 0 0
  29 H    1     2.1567     4.0756   45 H    0 0 0
  29 H    1     2.1842     4.1275   43 H    0 0 0

  30 H    1     0.9908     1.8723    6 O    0 0 0
  30 H    1     1.5695     2.9659   29 H    0 0 0
  30 H    1     1.6824     3.1793   17 O    0 0 0
  30 H    1     2.1311     4.0272   51 H    0 0 0
  30 H    1     2.1603     4.0823   52 H    0 0 0
  30 H    1     2.1690     4.0988   43 H    0 0 0

  31 H    1     0.9933     1.8770    7 O    0 0 0
  31 H    1     1.5743     2.9749   32 H    0 0 0
  31 H    1     1.6306     3.0815   15 O    0 0-1
  31 H    1     2.1321     4.0292   42 H    0 0 0
  31 H    1     2.1616     4.0847   47 H    0 0-1
  31 H    1     2.1926     4.1434   50 H    0 0 0

  32 H    1     0.9842     1.8599    7 O    0 0 0
  32 H    1     1.5743     2.9749   31 H    0 0 0
  32 H    1     1.7646     3.3346   10 O    0 1 0
  32 H    1     2.1853     4.1297   38 H    0 1 0
  32 H    1     2.2813     4.3110   50 H    0 0 0
  32 H    1     2.2831     4.3144   37 H    0 1 0

  33 H    1     0.9865     1.8643    8 O    0 0 0
  33 H    1     1.5608     2.9495   34 H    0 0 0
  33 H    1     1.7342     3.2771   10 O    0 0 0
  33 H    1     2.1453     4.0540   38 H    0 0 0
  33 H    1     2.1959     4.1497   37 H    0 0 0
  33 H    1     2.2273     4.2090   52 H    0 0 1

  34 H    1     0.9888     1.8685    8 O    0 0 0
  34 H    1     1.5608     2.9495   33 H    0 0 0
  34 H    1     1.6870     3.1879   13 O    0 0 0
  34 H    1     2.1346     4.0338   44 H   -1 0 0
  34 H    1     2.1673     4.0956   52 H    0 0 1
  34 H    1     2.1913     4.1409   40 H   -1 0 1

  35 H    1     0.9902     1.8712    9 O    0 0 0
  35 H    1     1.5732     2.9729   36 H    0 0 0
  35 H    1     1.6657     3.1477   14 O    1-1 0
  35 H    1     2.1112     3.9896   46 H    1-1 0
  35 H    1     2.1709     4.1024   39 H    0 0 0
  35 H    1     2.2090     4.1744   54 H    0 0 0

  36 H    1     0.9800     1.8519    9 O    0 0 0
  36 H    1     1.5732     2.9729   35 H    0 0 0
  36 H    1     1.7896     3.3819   12 O    1-1 0
  36 H    1     2.3051     4.3560   54 H    0 0 0
  36 H    1     2.3306     4.4042   41 H    1-1 0
  36 H    1     2.3852     4.5073   39 H    0 0 0

  37 H    1     0.9834     1.8584   10 O    0 0 0
  37 H    1     1.5625     2.9527   38 H    0 0 0
  37 H    1     1.7638     3.3332    1 O    0 0 0
  37 H    1     2.1959     4.1497   33 H    0 0 0
  37 H    1     2.2361     4.2257   19 H    0 0 0
  37 H    1     2.2831     4.3144   32 H    0-1 0

  38 H    1     0.9905     1.8718   10 O    0 0 0
  38 H    1     1.5625     2.9527   37 H    0 0 0
  38 H    1     1.6555     3.1285   15 O    0-1 0
  38 H    1     2.1453     4.0540   33 H    0 0 0
  38 H    1     2.1853     4.1297   32 H    0-1 0
  38 H    1     2.2039     4.1647   48 H    0 0 1

  39 H    1     0.9857     1.8627   11 O    0 0 0
  39 H    1     1.6176     3.0569   40 H    0 0 0
  39 H    1     1.7069     3.2255    9 O    0 0 0
  39 H    1     2.1215     4.0090   44 H    0 0 0
  39 H    1     2.1709     4.1024   35 H    0 0 0
  39 H    1     2.2936     4.3343   22 H    0 0 0

  40 H    1     0.9834     1.8583   11 O    0 0 0
  40 H    1     1.6176     3.0569   39 H    0 0 0
  40 H    1     1.7558     3.3181    8 O    1 0-1
  40 H    1     2.1815     4.1224   44 H    0 0 0
  40 H    1     2.1913     4.1409   34 H    1 0-1
  40 H    1     2.3423     4.4263   22 H    0 0 0

  41 H    1     0.9847     1.8608   12 O    0 0 0
  41 H    1     1.5731     2.9726   42 H    0 0 1
  41 H    1     1.7231     3.2562    3 O    0 0 0
  41 H    1     2.1347     4.0341   46 H    0 0 1
  41 H    1     2.2754     4.2998   23 H    0 0 0
  41 H    1     2.3248     4.3932   24 H    0 0 0

  42 H    1     0.9865     1.8643   12 O    0 0-1
  42 H    1     1.5731     2.9726   41 H    0 0-1
  42 H    1     1.7108     3.2330    7 O    0 0 0
  42 H    1     2.0958     3.9605   46 H    0 0 0
  42 H    1     2.1321     4.0292   31 H    0 0 0
  42 H    1     2.3832     4.5036   32 H    0 0 0

  43 H    1     0.9903     1.8714   13 O    0 0 0
  43 H    1     1.5931     3.0105   44 H   -1 0 0
  43 H    1     1.6610     3.1388    6 O    0 0 0
  43 H    1     2.1690     4.0988   30 H    0 0 0
  43 H    1     2.1842     4.1275   29 H    0 0 0
  43 H    1     2.2020     4.1611   34 H    0 0 0

  44 H    1     0.9910     1.8728   13 O    1 0 0
  44 H    1     1.5931     3.0105   43 H    1 0 0
  44 H    1     1.6562     3.1297   11 O    0 0 0
  44 H    1     2.1215     4.0090   39 H    0 0 0
  44 H    1     2.1346     4.0338   34 H    1 0 0
  44 H    1     2.1454     4.0543   27 H    0 0 0

  45 H    1     0.9904     1.8716   14 O    0 0 0
  45 H    1     1.5801     2.9859   46 H    0 0 0
  45 H    1     1.6632     3.1429    6 O    0 0 0
  45 H    1     2.1567     4.0756   29 H    0 0 0
  45 H    1     2.2293     4.2127   30 H    0 0 0
  45 H    1     2.2378     4.2289   35 H   -1 1 0

  46 H    1     0.9921     1.8748   14 O    0 0 0
  46 H    1     1.5801     2.9859   45 H    0 0 0
  46 H    1     1.6543     3.1261   12 O    0 0-1
  46 H    1     2.0958     3.9605   42 H    0 0 0
  46 H    1     2.1112     3.9896   35 H   -1 1 0
  46 H    1     2.1347     4.0341   41 H    0 0-1

  47 H    1     0.9906     1.8719   15 O    0 0 0
  47 H    1     1.6188     3.0591   48 H    0 1 1
  47 H    1     1.6415     3.1020    5 O    0 0 0
  47 H    1     2.1491     4.0611   28 H    0 0 0
  47 H    1     2.1616     4.0847   31 H    0 0 1
  47 H    1     2.2458     4.2440   38 H    0 1 0

  48 H    1     0.9915     1.8737   15 O    0-1-1
  48 H    1     1.6188     3.0591   47 H    0-1-1
  48 H    1     1.6318     3.0837    4 O    0 0 0
  48 H    1     2.1915     4.1413   26 H    0 0-1
  48 H    1     2.2039     4.1647   38 H    0 0-1
  48 H    1     2.2169     4.1893   31 H    0-1 0

  49 H    1     0.9860     1.8632   16 O    0 0 0
  49 H    1     1.5942     3.0126   50 H    0 0 0
  49 H    1     1.7423     3.2924    2 O    0 0 0
  49 H    1     2.1763     4.1126   21 H    0 0 0
  49 H    1     2.1802     4.1199   28 H    0 0 0
  49 H    1     2.2497     4.2513   22 H    0 0 0

  50 H    1     0.9881     1.8672   16 O    0 0 0
  50 H    1     1.5942     3.0126   49 H    0 0 0
  50 H    1     1.7181     3.2467    7 O    0 0 0
  50 H    1     2.1554     4.0732   28 H    0 0 0
  50 H    1     2.1926     4.1434   31 H    0 0 0
  50 H    1     2.2286     4.2115   23 H    0 0 0

  51 H    1     0.9853     1.8620   17 O    0 0 0
  51 H    1     1.5776     2.9812   52 H    0 0 0
  51 H    1     1.7301     3.2695    1 O    0 0 0
  51 H    1     2.1311     4.0272   30 H    0 0 0
  51 H    1     2.1685     4.0978   19 H    0 0 0
  51 H    1     2.3996     4.5346   20 H    0 0 0

  52 H    1     0.9885     1.8679   17 O    0 0 0
  52 H    1     1.5776     2.9812   51 H    0 0 0
  52 H    1     1.7156     3.2421    8 O    0 0-1
  52 H    1     2.1603     4.0823   30 H    0 0 0
  52 H    1     2.1673     4.0956   34 H    0 0-1
  52 H    1     2.2273     4.2090   33 H    0 0-1

  53 H    1     0.9867     1.8646   18 O    0 0 0
  53 H    1     1.5811     2.9878   54 H    0 0 0
  53 H    1     1.7299     3.2691    2 O    0 0 1
  53 H    1     2.1108     3.9889   26 H    0 0 0
  53 H    1     2.1559     4.0742   21 H    0 0 1
  53 H    1     2.1916     4.1415   22 H    0 0 1

  54 H    1     0.9846     1.8607   18 O    0 0 0
  54 H    1     1.5811     2.9878   53 H    0 0 0
  54 H    1     1.7414     3.2907    9 O    0 0 0
  54 H    1     2.1486     4.0602   26 H    0 0 0
  54 H    1     2.2090     4.1744   35 H    0 0 0
  54 H    1     2.3051     4.3560   36 H    0 0 0


 SYMMETRY ALLOWED INTERNAL DEGREE(S) OF FREEDOM: 159
 TTTTTTTTTTTTTTTTTTTTTTTTTTTTTT SYMM        TELAPSE        0.42 TCPU        0.12
 TTTTTTTTTTTTTTTTTTTTTTTTTTTTTT INT_SCREEN  TELAPSE        0.43 TCPU        0.13

 DFT PARAMETERS

     ATOM       ELECTRONS   NET CHARGE   R(ANGSTROM)
   1   8  O       8.0000      0.0000     0.74000000
  19   1  H       1.0000      0.0000     1.11000000

 SIZE OF GRID=    1248476
 TTTTTTTTTTTTTTTTTTTTTTTTTTTTTT MAKE_GRID2  TELAPSE       14.89 TCPU       14.60
 BECKE WEIGHT FUNCTION
 RADSAFE =     2.00
 TOLERANCES - DENSITY:10**- 6; POTENTIAL:10**- 9; GRID WGT:10**-14

 RADIAL INTEGRATION  - INTERVALS (POINTS,UPPER LIMIT):            1( 75,  4.0*R)

 ANGULAR INTEGRATION - INTERVALS (ACCURACY LEVEL [N. POINTS] UPPER LIMIT):
  1(  4[  86]   0.2)  2(  8[ 194]   0.5)  3( 12[ 350]   0.9)  4( 16[ 974]   3.5)
  5( 12[ 350]9999.0)
 TTTTTTTTTTTTTTTTTTTTTTTTTTTTTT INT_CALC    TELAPSE       14.93 TCPU       14.63
 EEEEEEEEEE INT_CALC TERMINATION  DATE 25 03 2019 TIME 17:52:56.2

 *******************************************************************************
 !drive by JGB                                                                   
 CRYSTAL - SCF - TYPE OF CALCULATION :  RESTRICTED CLOSED SHELL
 *******************************************************************************

 CAPPA:IS1  1;IS2  1;IS3  2; K PTS MONK NET   2; SYMMOPS:K SPACE   2;G SPACE   1

 TTTTTTTTTTTTTTTTTTTTTTTTTTTTTT SDIK        TELAPSE       15.61 TCPU       15.31

 AAAAAAAAAAAAAAAAAAAAAAAAAAAAAAAAAAAAAAAAAAAAAAAAAAAAAAAAAAAAAAAAAAAAAAAAAAAAAAA
         ATOMIC WAVEFUNCTION(S)


 NUCLEAR CHARGE  8.0  SYMMETRY SPECIES            S    P
 N. ELECTRONS    8.0  NUMBER OF PRIMITIVE GTOS    8    4
                      NUMBER OF CONTRACTED GTOS   4    2
                      NUMBER OF CLOSED SHELLS     2    0
                      OPEN SHELL OCCUPATION       0    4

  ZNUC SCFIT  TOTAL HF ENERGY   KINETIC ENERGY   VIRIAL THEOREM ACCURACY
   8.0  12   -7.477373220E+01  7.477365593E+01 -2.000001020E+00  3.8E-06

 NUCLEAR CHARGE  1.0  SYMMETRY SPECIES            S
 N. ELECTRONS    1.0  NUMBER OF PRIMITIVE GTOS    4
                      NUMBER OF CONTRACTED GTOS   2
                      NUMBER OF CLOSED SHELLS     0
                      OPEN SHELL OCCUPATION       1

  ZNUC SCFIT  TOTAL HF ENERGY   KINETIC ENERGY   VIRIAL THEOREM ACCURACY
   1.0   1   -4.977266687E-01  5.190767460E-01 -1.958869132E+00  1.8E-16

 AAAAAAAAAAAAAAAAAAAAAAAAAAAAAAAAAAAAAAAAAAAAAAAAAAAAAAAAAAAAAAAAAAAAAAAAAAAAAAA

 CHARGE NORMALIZATION FACTOR   1.00000000
 TOTAL ATOMIC CHARGES:
   8.0000000   8.0000000   8.0000000   8.0000000   8.0000000   8.0000000
   8.0000000   8.0000000   8.0000000   8.0000000   8.0000000   8.0000000
   8.0000000   8.0000000   8.0000000   8.0000000   8.0000000   8.0000000
   1.0000000   1.0000000   1.0000000   1.0000000   1.0000000   1.0000000
   1.0000000   1.0000000   1.0000000   1.0000000   1.0000000   1.0000000
   1.0000000   1.0000000   1.0000000   1.0000000   1.0000000   1.0000000
   1.0000000   1.0000000   1.0000000   1.0000000   1.0000000   1.0000000
   1.0000000   1.0000000   1.0000000   1.0000000   1.0000000   1.0000000
   1.0000000   1.0000000   1.0000000   1.0000000   1.0000000   1.0000000
 TTTTTTTTTTTTTTTTTTTTTTTTTTTTTT MOQGAD      TELAPSE       15.91 TCPU       15.61
 TTTTTTTTTTTTTTTTTTTTTTTTTTTTTT SHELLXN     TELAPSE       45.60 TCPU       45.22
 TTTTTTTTTTTTTTTTTTTTTTTTTTTTTT MONMO3      TELAPSE       47.34 TCPU       46.96
 NUMERICALLY INTEGRATED DENSITY    180.0000168886
 TTTTTTTTTTTTTTTTTTTTTTTTTTTTTT NUMDFT      TELAPSE       49.47 TCPU       49.08
 CYC   0 ETOT(AU) -1.374007444254E+03 DETOT -1.37E+03 tst  0.00E+00 PX  1.00E+00
 TTTTTTTTTTTTTTTTTTTTTTTTTTTTTT DIIS        TELAPSE       49.48 TCPU       49.09
 TTTTTTTTTTTTTTTTTTTTTTTTTTTTTT FDIK        TELAPSE       50.45 TCPU       49.96
 INSULATING STATE
 TOP OF VALENCE BANDS -    BAND     90; K    1; EIG -4.1390753E-01 AU
 BOTTOM OF VIRTUAL BANDS - BAND     91; K    1; EIG -6.4539561E-02 AU
 DIRECT ENERGY BAND GAP:   9.5068 eV
 TTTTTTTTTTTTTTTTTTTTTTTTTTTTTT PDIG        TELAPSE       50.47 TCPU       49.98
 CHARGE NORMALIZATION FACTOR   1.00000000
 TOTAL ATOMIC CHARGES:
   9.0737851   9.0758061   9.0638462   9.0762195   9.0765988   9.0710078
   9.0777640   9.0776240   9.0724030   9.0762786   9.0656355   9.0735021
   9.0769063   9.0762549   9.0806220   9.0708434   9.0721731   9.0744422
   0.4665410   0.4599871   0.4690682   0.4663435   0.4569967   0.4560735
   0.4581954   0.4668238   0.4589110   0.4656398   0.4657611   0.4670904
   0.4657607   0.4615857   0.4651786   0.4669524   0.4659942   0.4584570
   0.4680698   0.4665614   0.4590962   0.4585215   0.4644297   0.4616480
   0.4604580   0.4662771   0.4599649   0.4674889   0.4576546   0.4571097
   0.4591327   0.4637737   0.4615176   0.4664657   0.4629187   0.4658390
 TTTTTTTTTTTTTTTTTTTTTTTTTTTTTT MOQGAD      TELAPSE       50.48 TCPU       49.99
 TTTTTTTTTTTTTTTTTTTTTTTTTTTTTT SHELLXN     TELAPSE       81.05 TCPU       80.56
 TTTTTTTTTTTTTTTTTTTTTTTTTTTTTT MONMO3      TELAPSE       82.96 TCPU       82.47
 NUMERICALLY INTEGRATED DENSITY    180.0000147327
 TTTTTTTTTTTTTTTTTTTTTTTTTTTTTT NUMDFT      TELAPSE       87.11 TCPU       86.62
 CYC   1 ETOT(AU) -1.372917036273E+03 DETOT  1.09E+00 tst  0.00E+00 PX  1.00E+00
 TTTTTTTTTTTTTTTTTTTTTTTTTTTTTT DIIS        TELAPSE       87.17 TCPU       86.68
 DIIS TEST: 0.17500E+01 AT SCF   CYCLE   1 - MIX   30 %
 TTTTTTTTTTTTTTTTTTTTTTTTTTTTTT FDIK        TELAPSE       87.26 TCPU       86.77
 INSULATING STATE
 TOP OF VALENCE BANDS -    BAND     90; K    1; EIG -3.1365153E-01 AU
 BOTTOM OF VIRTUAL BANDS - BAND     91; K    1; EIG -3.1699711E-03 AU
 DIRECT ENERGY BAND GAP:   8.4486 eV
 TTTTTTTTTTTTTTTTTTTTTTTTTTTTTT PDIG        TELAPSE       87.28 TCPU       86.78
 CHARGE NORMALIZATION FACTOR   1.00000000
 TOTAL ATOMIC CHARGES:
   8.8624389   8.8633766   8.8662931   8.8822736   8.8812127   8.8754721
   8.8709443   8.8643828   8.8639625   8.8612428   8.8674327   8.8671487
   8.8800136   8.8807416   8.8878020   8.8712333   8.8671314   8.8657804
   0.5676337   0.5658929   0.5723122   0.5715148   0.5560162   0.5544296
   0.5533477   0.5683076   0.5536458   0.5669526   0.5646973   0.5691717
   0.5651221   0.5670212   0.5717280   0.5702328   0.5669616   0.5609930
   0.5786034   0.5692712   0.5584530   0.5603038   0.5667827   0.5647594
   0.5573088   0.5661027   0.5559363   0.5691143   0.5533710   0.5522684
   0.5605592   0.5666924   0.5636407   0.5712602   0.5687779   0.5719302
 TTTTTTTTTTTTTTTTTTTTTTTTTTTTTT MOQGAD      TELAPSE       87.29 TCPU       86.79
 TTTTTTTTTTTTTTTTTTTTTTTTTTTTTT SHELLXN     TELAPSE      117.84 TCPU      117.34
 TTTTTTTTTTTTTTTTTTTTTTTTTTTTTT MONMO3      TELAPSE      119.75 TCPU      119.25
 NUMERICALLY INTEGRATED DENSITY    180.0000133390
 TTTTTTTTTTTTTTTTTTTTTTTTTTTTTT NUMDFT      TELAPSE      123.88 TCPU      123.37
 CYC   2 ETOT(AU) -1.373282025203E+03 DETOT -3.65E-01 tst  1.83E-03 PX  1.20E-01
 TTTTTTTTTTTTTTTTTTTTTTTTTTTTTT DIIS        TELAPSE      128.82 TCPU      128.32
 DIIS TEST: 0.36148E+00 AT SCF   CYCLE   2 - DIIS ACTIVE - HISTORY:     2 CYCLES
 TTTTTTTTTTTTTTTTTTTTTTTTTTTTTT FDIK        TELAPSE      128.91 TCPU      128.39
 INSULATING STATE
 TOP OF VALENCE BANDS -    BAND     90; K    1; EIG -3.5636209E-01 AU
 BOTTOM OF VIRTUAL BANDS - BAND     91; K    1; EIG -4.1052687E-03 AU
 DIRECT ENERGY BAND GAP:   9.5854 eV
 TTTTTTTTTTTTTTTTTTTTTTTTTTTTTT PDIG        TELAPSE      128.92 TCPU      128.40
 CHARGE NORMALIZATION FACTOR   1.00000000
 TOTAL ATOMIC CHARGES:
   8.9367314   8.9394101   8.9355735   8.9477252   8.9476078   8.9424268
   8.9438060   8.9397025   8.9376002   8.9375662   8.9354259   8.9389609
   8.9472393   8.9472652   8.9525355   8.9402847   8.9381627   8.9378516
   0.5315305   0.5303471   0.5352633   0.5354631   0.5230225   0.5210631
   0.5204932   0.5330164   0.5204116   0.5324472   0.5308994   0.5343436
   0.5294285   0.5299584   0.5333465   0.5339693   0.5312506   0.5255814
   0.5403377   0.5322754   0.5244011   0.5259828   0.5325175   0.5286378
   0.5235956   0.5312772   0.5223157   0.5337608   0.5205934   0.5194839
   0.5251676   0.5315583   0.5277019   0.5349612   0.5320072   0.5357138
 TTTTTTTTTTTTTTTTTTTTTTTTTTTTTT MOQGAD      TELAPSE      128.93 TCPU      128.41
 TTTTTTTTTTTTTTTTTTTTTTTTTTTTTT SHELLXN     TELAPSE      159.51 TCPU      158.98
 TTTTTTTTTTTTTTTTTTTTTTTTTTTTTT MONMO3      TELAPSE      161.45 TCPU      160.92
 NUMERICALLY INTEGRATED DENSITY    180.0000137939
 TTTTTTTTTTTTTTTTTTTTTTTTTTTTTT NUMDFT      TELAPSE      165.56 TCPU      165.03
 CYC   3 ETOT(AU) -1.373376183764E+03 DETOT -9.42E-02 tst  2.01E-04 PX  4.10E-02
 TTTTTTTTTTTTTTTTTTTTTTTTTTTTTT DIIS        TELAPSE      165.61 TCPU      165.08
 DIIS TEST: 0.29055E-02 AT SCF   CYCLE   3 - DIIS ACTIVE - HISTORY:     3 CYCLES
 TTTTTTTTTTTTTTTTTTTTTTTTTTTTTT FDIK        TELAPSE      165.69 TCPU      165.14
 INSULATING STATE
 TOP OF VALENCE BANDS -    BAND     90; K    1; EIG -3.5414770E-01 AU
 BOTTOM OF VIRTUAL BANDS - BAND     91; K    1; EIG -2.0584755E-03 AU
 DIRECT ENERGY BAND GAP:   9.5808 eV
 TTTTTTTTTTTTTTTTTTTTTTTTTTTTTT PDIG        TELAPSE      165.70 TCPU      165.15
 CHARGE NORMALIZATION FACTOR   1.00000000
 TOTAL ATOMIC CHARGES:
   8.9316779   8.9335411   8.9329573   8.9503867   8.9497307   8.9432544
   8.9408766   8.9348582   8.9327693   8.9321409   8.9351157   8.9355899
   8.9483133   8.9491929   8.9558001   8.9387860   8.9358188   8.9348642
   0.5328974   0.5324211   0.5365631   0.5373591   0.5241461   0.5223207
   0.5199359   0.5325272   0.5201134   0.5319388   0.5310996   0.5344049
   0.5300088   0.5314819   0.5354326   0.5354368   0.5325680   0.5276557
   0.5424722   0.5336212   0.5253091   0.5269029   0.5338581   0.5301999
   0.5233340   0.5311216   0.5220204   0.5334215   0.5197704   0.5186802
   0.5264197   0.5324817   0.5292179   0.5363185   0.5335603   0.5373047
 TTTTTTTTTTTTTTTTTTTTTTTTTTTTTT MOQGAD      TELAPSE      165.71 TCPU      165.16
 TTTTTTTTTTTTTTTTTTTTTTTTTTTTTT SHELLXN     TELAPSE      196.17 TCPU      195.61
 TTTTTTTTTTTTTTTTTTTTTTTTTTTTTT MONMO3      TELAPSE      198.06 TCPU      197.50
 NUMERICALLY INTEGRATED DENSITY    180.0000137667
 TTTTTTTTTTTTTTTTTTTTTTTTTTTTTT NUMDFT      TELAPSE      202.10 TCPU      201.54
 CYC   4 ETOT(AU) -1.373376421768E+03 DETOT -2.38E-04 tst  4.93E-07 PX  2.69E-03
 TTTTTTTTTTTTTTTTTTTTTTTTTTTTTT DIIS        TELAPSE      202.15 TCPU      201.59
 DIIS TEST: 0.18887E-03 AT SCF   CYCLE   4 - DIIS ACTIVE - HISTORY:     4 CYCLES
 TTTTTTTTTTTTTTTTTTTTTTTTTTTTTT FDIK        TELAPSE      202.22 TCPU      201.64
 INSULATING STATE
 TOP OF VALENCE BANDS -    BAND     90; K    1; EIG -3.5454225E-01 AU
 BOTTOM OF VIRTUAL BANDS - BAND     91; K    1; EIG -1.8896398E-03 AU
 DIRECT ENERGY BAND GAP:   9.5962 eV
 TTTTTTTTTTTTTTTTTTTTTTTTTTTTTT PDIG        TELAPSE      202.24 TCPU      201.66
 CHARGE NORMALIZATION FACTOR   1.00000000
 TOTAL ATOMIC CHARGES:
   8.9350352   8.9380682   8.9335781   8.9461958   8.9458830   8.9407709
   8.9422990   8.9381755   8.9359640   8.9358605   8.9333244   8.9372524
   8.9457075   8.9457106   8.9508576   8.9383173   8.9362030   8.9359511
   0.5323695   0.5312740   0.5358464   0.5362606   0.5240538   0.5220365
   0.5213359   0.5336886   0.5213540   0.5332071   0.5318611   0.5351714
   0.5301536   0.5307391   0.5341160   0.5347974   0.5321089   0.5265571
   0.5411944   0.5330285   0.5254368   0.5269827   0.5333201   0.5295793
   0.5242962   0.5321622   0.5231138   0.5343748   0.5214632   0.5204432
   0.5261125   0.5324579   0.5287444   0.5358036   0.5327948   0.5366066
 TTTTTTTTTTTTTTTTTTTTTTTTTTTTTT MOQGAD      TELAPSE      202.25 TCPU      201.67
 TTTTTTTTTTTTTTTTTTTTTTTTTTTTTT SHELLXN     TELAPSE      231.99 TCPU      231.40
 TTTTTTTTTTTTTTTTTTTTTTTTTTTTTT MONMO3      TELAPSE      233.86 TCPU      233.28
 NUMERICALLY INTEGRATED DENSITY    180.0000137782
 TTTTTTTTTTTTTTTTTTTTTTTTTTTTTT NUMDFT      TELAPSE      238.13 TCPU      237.53
 CYC   5 ETOT(AU) -1.373376432554E+03 DETOT -1.08E-05 tst  3.59E-07 PX  2.41E-03
 TTTTTTTTTTTTTTTTTTTTTTTTTTTTTT DIIS        TELAPSE      238.18 TCPU      237.58
 DIIS TEST: 0.15456E-03 AT SCF   CYCLE   5 - DIIS ACTIVE - HISTORY:     5 CYCLES
 TTTTTTTTTTTTTTTTTTTTTTTTTTTTTT FDIK        TELAPSE      238.26 TCPU      237.64
 INSULATING STATE
 TOP OF VALENCE BANDS -    BAND     90; K    1; EIG -3.5434934E-01 AU
 BOTTOM OF VIRTUAL BANDS - BAND     91; K    1; EIG -1.8298616E-03 AU
 DIRECT ENERGY BAND GAP:   9.5925 eV
 TTTTTTTTTTTTTTTTTTTTTTTTTTTTTT PDIG        TELAPSE      238.28 TCPU      237.66
 CHARGE NORMALIZATION FACTOR   1.00000000
 TOTAL ATOMIC CHARGES:
   8.9332016   8.9354256   8.9332262   8.9484038   8.9479255   8.9420111
   8.9414795   8.9363254   8.9341415   8.9338480   8.9344933   8.9363321
   8.9470332   8.9476091   8.9535197   8.9385976   8.9360739   8.9354958
   0.5326728   0.5318684   0.5363189   0.5368945   0.5241103   0.5221593
   0.5205447   0.5330999   0.5206700   0.5325802   0.5314968   0.5348177
   0.5300827   0.5311426   0.5348072   0.5351718   0.5324024   0.5271128
   0.5419389   0.5333573   0.5253040   0.5268839   0.5336282   0.5299207
   0.5237795   0.5316308   0.5224942   0.5339293   0.5205484   0.5195017
   0.5262512   0.5325116   0.5289528   0.5361016   0.5331793   0.5369914
 TTTTTTTTTTTTTTTTTTTTTTTTTTTTTT MOQGAD      TELAPSE      238.29 TCPU      237.66
 TTTTTTTTTTTTTTTTTTTTTTTTTTTTTT SHELLXN     TELAPSE      268.59 TCPU      267.85
 TTTTTTTTTTTTTTTTTTTTTTTTTTTTTT MONMO3      TELAPSE      270.50 TCPU      269.74
 NUMERICALLY INTEGRATED DENSITY    180.0000137720
 TTTTTTTTTTTTTTTTTTTTTTTTTTTTTT NUMDFT      TELAPSE      274.63 TCPU      273.86
 CYC   6 ETOT(AU) -1.373376467464E+03 DETOT -3.49E-05 tst  6.98E-08 PX  1.32E-03
 TTTTTTTTTTTTTTTTTTTTTTTTTTTTTT DIIS        TELAPSE      274.70 TCPU      273.93
 DIIS TEST: 0.19771E-04 AT SCF   CYCLE   6 - DIIS ACTIVE - HISTORY:     6 CYCLES
 TTTTTTTTTTTTTTTTTTTTTTTTTTTTTT FDIK        TELAPSE      274.78 TCPU      273.99
 INSULATING STATE
 TOP OF VALENCE BANDS -    BAND     90; K    1; EIG -3.5436434E-01 AU
 BOTTOM OF VIRTUAL BANDS - BAND     91; K    1; EIG -1.8279987E-03 AU
 DIRECT ENERGY BAND GAP:   9.5930 eV
 TTTTTTTTTTTTTTTTTTTTTTTTTTTTTT PDIG        TELAPSE      274.80 TCPU      274.00
 CHARGE NORMALIZATION FACTOR   1.00000000
 TOTAL ATOMIC CHARGES:
   8.9333033   8.9357783   8.9332255   8.9482945   8.9477949   8.9420107
   8.9415531   8.9364585   8.9343381   8.9339434   8.9341628   8.9363699
   8.9470116   8.9474389   8.9533462   8.9384830   8.9359262   8.9353446
   0.5326629   0.5318556   0.5362368   0.5368300   0.5241250   0.5221859
   0.5206087   0.5331457   0.5207124   0.5326179   0.5314951   0.5348301
   0.5300893   0.5311160   0.5347694   0.5351400   0.5323712   0.5270750
   0.5418937   0.5333574   0.5253742   0.5269635   0.5336167   0.5299135
   0.5238016   0.5316808   0.5225565   0.5339430   0.5206126   0.5195546
   0.5262715   0.5325157   0.5289860   0.5361210   0.5331869   0.5370005
 TTTTTTTTTTTTTTTTTTTTTTTTTTTTTT MOQGAD      TELAPSE      274.80 TCPU      274.01
 TTTTTTTTTTTTTTTTTTTTTTTTTTTTTT SHELLXN     TELAPSE      305.24 TCPU      304.27
 TTTTTTTTTTTTTTTTTTTTTTTTTTTTTT MONMO3      TELAPSE      307.11 TCPU      306.14
 NUMERICALLY INTEGRATED DENSITY    180.0000137725
 TTTTTTTTTTTTTTTTTTTTTTTTTTTTTT NUMDFT      TELAPSE      311.44 TCPU      310.47
 CYC   7 ETOT(AU) -1.373376468555E+03 DETOT -1.09E-06 tst  1.22E-09 PX  1.47E-04
 TTTTTTTTTTTTTTTTTTTTTTTTTTTTTT DIIS        TELAPSE      311.50 TCPU      310.53
 DIIS TEST: 0.47535E-06 AT SCF   CYCLE   7 - DIIS ACTIVE - HISTORY:     7 CYCLES
 TTTTTTTTTTTTTTTTTTTTTTTTTTTTTT FDIK        TELAPSE      311.58 TCPU      310.58
 INSULATING STATE
 TOP OF VALENCE BANDS -    BAND     90; K    1; EIG -3.5435737E-01 AU
 BOTTOM OF VIRTUAL BANDS - BAND     91; K    1; EIG -1.8295080E-03 AU
 DIRECT ENERGY BAND GAP:   9.5928 eV
 TTTTTTTTTTTTTTTTTTTTTTTTTTTTTT PDIG        TELAPSE      311.59 TCPU      310.59
 CHARGE NORMALIZATION FACTOR   1.00000000
 TOTAL ATOMIC CHARGES:
   8.9332961   8.9355257   8.9332222   8.9482013   8.9477749   8.9418779
   8.9414964   8.9364104   8.9342202   8.9339673   8.9344394   8.9363836
   8.9468921   8.9474763   8.9533138   8.9385752   8.9360790   8.9355591
   0.5326693   0.5318389   0.5363038   0.5368760   0.5241209   0.5221714
   0.5206252   0.5331511   0.5207335   0.5326242   0.5315309   0.5348521
   0.5301086   0.5311289   0.5347750   0.5351624   0.5323969   0.5270994
   0.5418948   0.5333553   0.5253100   0.5268945   0.5336162   0.5299139
   0.5238388   0.5316922   0.5225598   0.5339407   0.5206260   0.5195714
   0.5262694   0.5325000   0.5289436   0.5360841   0.5331551   0.5369549
 TTTTTTTTTTTTTTTTTTTTTTTTTTTTTT MOQGAD      TELAPSE      311.60 TCPU      310.60
 TTTTTTTTTTTTTTTTTTTTTTTTTTTTTT SHELLXN     TELAPSE      341.89 TCPU      340.78
 TTTTTTTTTTTTTTTTTTTTTTTTTTTTTT MONMO3      TELAPSE      343.80 TCPU      342.69
 NUMERICALLY INTEGRATED DENSITY    180.0000137722
 TTTTTTTTTTTTTTTTTTTTTTTTTTTTTT NUMDFT      TELAPSE      348.10 TCPU      346.99
 CYC   8 ETOT(AU) -1.373376468591E+03 DETOT -3.63E-08 tst  2.60E-10 PX  1.23E-04
 TTTTTTTTTTTTTTTTTTTTTTTTTTTTTT DIIS        TELAPSE      348.16 TCPU      347.05
 DIIS TEST: 0.28828E-06 AT SCF   CYCLE   8 - DIIS ACTIVE - HISTORY:     8 CYCLES
 TTTTTTTTTTTTTTTTTTTTTTTTTTTTTT FDIK        TELAPSE      348.23 TCPU      347.12
 INSULATING STATE
 TOP OF VALENCE BANDS -    BAND     90; K    1; EIG -3.5436108E-01 AU
 BOTTOM OF VIRTUAL BANDS - BAND     91; K    1; EIG -1.8281791E-03 AU
 DIRECT ENERGY BAND GAP:   9.5929 eV
 TTTTTTTTTTTTTTTTTTTTTTTTTTTTTT PDIG        TELAPSE      348.25 TCPU      347.13
 CHARGE NORMALIZATION FACTOR   1.00000000
 TOTAL ATOMIC CHARGES:
   8.9332951   8.9356991   8.9332254   8.9482851   8.9477885   8.9419783
   8.9415314   8.9364398   8.9343056   8.9339292   8.9342361   8.9363646
   8.9469847   8.9474491   8.9533467   8.9385014   8.9359664   8.9353913
   0.5326656   0.5318526   0.5362603   0.5368473   0.5241252   0.5221803
   0.5206073   0.5331465   0.5207175   0.5326225   0.5315045   0.5348360
   0.5300962   0.5311225   0.5347738   0.5351480   0.5323802   0.5270816
   0.5419056   0.5333610   0.5253555   0.5269459   0.5336211   0.5299149
   0.5238074   0.5316857   0.5225551   0.5339454   0.5206132   0.5195546
   0.5262727   0.5325145   0.5289744   0.5361129   0.5331823   0.5369920
 TTTTTTTTTTTTTTTTTTTTTTTTTTTTTT MOQGAD      TELAPSE      348.26 TCPU      347.14
 TTTTTTTTTTTTTTTTTTTTTTTTTTTTTT SHELLXN     TELAPSE      378.60 TCPU      377.37
 +++ ENERGIES IN A.U. +++
 ::: EXT EL-POLE                                  -1.3270704583569E+03
 ::: EXT EL-SPHEROPOLE                             1.5813798777710E+01
 ::: BIELET ZONE E-E                               1.7129145198551E+03
 ::: TOTAL E-E                                     4.0165786027594E+02
 ::: TOTAL E-N + N-E                              -2.7961977484909E+03
 ::: TOTAL N-N                                    -2.4049635937879E+02
 ::: KINETIC ENERGY                                1.3646990752882E+03
 ::: PSEUDO TOTAL   ENERGY                        -1.2703371723055E+03
 ::: VIRIAL COEFFICIENT                            1.0358104762577E+00
 TTTTTTTTTTTTTTTTTTTTTTTTTTTTTT MONMO3      TELAPSE      380.50 TCPU      379.26
 NUMERICALLY INTEGRATED DENSITY    180.0000137724
 TTTTTTTTTTTTTTTTTTTTTTTTTTTTTT NUMDFT      TELAPSE      384.63 TCPU      383.38
 CYC   9 ETOT(AU) -1.373376468602E+03 DETOT -1.14E-08 tst  1.53E-10 PX  1.23E-04

 == SCF ENDED - CONVERGENCE ON ENERGY      E(AU) -1.3733764686024E+03 CYCLES   9


 ENERGY EXPRESSION=HARTREE+FOCK EXCH*0.00000+(HSE-3c     EXCH)*1.00000+PBEh-3c    CORR


 TOTAL ENERGY(DFT)(AU)(  9) -1.3733764686024E+03 DE-1.1E-08 tester 1.5E-10
 TTTTTTTTTTTTTTTTTTTTTTTTTTTTTT EDFT        TELAPSE      384.63 TCPU      383.38
 
 INFORMATION **** DFTD3 ENERGY **** CALCULATE DFTD3 ENERGY

           DFT-D V3(BJ)
 DF                                         hse3c     
 parameters
 s6       :    1.0000
 s8       :    0.0000
 a1       :    0.4411
 a2       :    4.5182
 k1 k3    :   16.0000   -4.0000
 Cutoff   :   50.2022
 CN-Cutoff:   21.1671
 
 Edisp /kcal,au:   -31.3741 -0.04999788

 E6    /kcal :   -33.5493
 E8    /kcal :     0.0000
 E6(ABC) "   :   2.175147
 
 INFORMATION **** DFTD3 ENERGY **** NORMAL TERMINATION OF DFTD3 MODULE

 GCP ENERGY CALCULATION
  level           hse3c               basis:hse3c
  Nbf            342
  Atoms           54

  Parameters: 
  sigma     1.0000
  eta       1.4086
  alpha     0.2908
  beta      1.9526

  dmp_scal      4.0000
  dmp_exp       6.0000
 cutoffs: 
   distance [bohr] 60.0
   noise    [a.u.] 2.2E-16
 SR-damping   T
 ** gCP correction **
  Egcp:        0.2370576309 / (a.u.) ||     148.7559 / (kcal/mol)
 INFORMATION **** GCP **** NORMAL TERMINATION OF GCP MODULE

 *******************************************************************************

 DFT-D3-GCP DISPERSION AND COUNTERPOISE CORRECTION

 D3 DISPERSION ENERGY (AU)      -4.9997876558649E-02
 GCP ENERGY (AU)                 2.3705763085449E-01
 TOTAL ENERGY + DISP + GCP (AU) -1.3731894088481E+03

 *******************************************************************************

 EIGENVECTORS IN FORTRAN UNIT 10
 TTTTTTTTTTTTTTTTTTTTTTTTTTTTTT END         TELAPSE      386.20 TCPU      384.90
 EEEEEEEEEE TERMINATION  DATE 25 03 2019 TIME 17:59:07.5
NODE    0 CPU TIME =       384.900
NODE    1 CPU TIME =       384.798
NODE    2 CPU TIME =       384.806
NODE    3 CPU TIME =       385.262
NODE    4 CPU TIME =       385.157
NODE    5 CPU TIME =       385.155
NODE    6 CPU TIME =       384.442
NODE    7 CPU TIME =       380.030
    TOTAL CPU TIME =      3074.551
