 PROCESS            5  OF            8  WORKING
 PROCESS            0  OF            8  WORKING
 PROCESS            6  OF            8  WORKING
 PROCESS            1  OF            8  WORKING
 PROCESS            7  OF            8  WORKING
 PROCESS            3  OF            8  WORKING
 PROCESS            4  OF            8  WORKING
 PROCESS            2  OF            8  WORKING

         
 *******************************************************************************
 *                                                                             *
 *                               CRYSTAL17                                     *
 *                      public : 1.0.1 - Feb 1st, 2017                         *
 *                       HTTP://WWW.CRYSTAL.UNITO.IT                           *
 *                                                                             *
 *                              MAIN AUTHORS                                   *
 *                                                                             *
 *  R. DOVESI(1,11), V.R. SAUNDERS(2), C. ROETTI(1,11), R. ORLANDO(1,11),      *
 *  C.M. ZICOVICH-WILSON(1,3), F. PASCALE(4), B. CIVALLERI(1,11),              *
 *  K. DOLL(5), N.M. HARRISON(2,6), I.J. BUSH(7), Ph. D'ARCO(8),               *
 *  M. LLUNELL(9), M. CAUSA'(10), Y. NOEL(8), L. MASCHIO(1,11), A. ERBA(1,11)  *
 *  M. RE'RAT(14), S. CASASSA(1,11)                                            *
 *                                                                             *
 *        CONTRIBUTIONS TO THE CODE HAVE ALSO BEEN GIVEN BY                    *
 *                                                                             *
 *  M. FERRABONE(1,11), M. DE LA PIERRE(1,11), M. FERRERO(1,11),               *
 *  J. BAIMA(1,11), E. ALBANESE(1,11), M.F. PEINTINGER(12), R. BAST(13),       *
 *  B. KIRTMAN(15), V. LACIVITA(1,11), R. DEMICHELIS(1,16)                     *
 *  G. BRANDEBURG(17), S. SALUSTRO(1,11), G. SANSONE(1,11)                     *
 *  M.T. RUGGIERO(18)                                                          *
 *                                                                             *
 * (1) THEORETICAL CHEMISTRY GROUP - UNIVERSITA' DI TORINO - TORINO (ITALY)    *

 * (2) COMPUTATIONAL SCIENCE & ENGINEERING DEPARTMENT - STFC DARESBURY (UK)    *
 * (3) UNIVERSIDAD AUTONOMA DEL ESTADO DE MORELOS - CUERNAVACA (MEXICO)        *
 * (4) UNIVERSITE' DE LORRAINE - NANCY (FRANCE)                                *
 * (5) UNIVERSITAET STUTTGART- STUTTGART (GERMANY)                             *
 * (6) IMPERIAL COLLEGE - LONDON (UK)                                          *
 * (7) OXFORD E-RESEARCH CENTRE - OXFORD (UK)                                  *
 * (8) UPMC - SORBONNE UNIVERSITES - PARIS (FRANCE)                            *
 * (9) UNIVERSIDAD DE BARCELONA - BARCELONA (SPAIN)                            *
 *(10) UNIVERSITA' DI NAPOLI "FEDERICO II" - NAPOLI (ITALY)                    *
 *(11) NIS - NANOSTRUCTURED INTERFACES AND SURFACES - TORINO (ITALY)           *
 *(12) MPI FUER CHEMISCHE ENERGIEKONVERSION - MUELHEIM AN DER RUHR (GERMANY)   *
 *(13) UNIVERSITY OF TROMSO - TROMSO (NORWAY)                                  *
 *(14) UNIVERSITE' DE PAU ET DES PAYS DE L'ADOUR - PAU (FRANCE)                *
 *(15) UNIVERSITY OF CALIFORNIA SANTA BARBARA - SANTA BARBARA (USA)            *
 *(16) CURTIN UNIVERSITY - PERTH (AUSTRALIA)                                   *
 *(17) UNIVERSITY COLLEGE LONDON - LONDON (UK)                                 *
 *(18) CAMBRIDGE UNIVERSITY - CAMBRIDGE (UK)                                   *
 *                                                                             *
 *******************************************************************************
 EEEEEEEEEE STARTING  DATE 25 03 2019 TIME 17:52:40.7
 !drive by JGB                                                                   

 CRYSTAL CALCULATION
 (INPUT ACCORDING TO THE INTERNATIONAL TABLES FOR X-RAY CRYSTALLOGRAPHY)
 CRYSTAL FAMILY                       :  TRICLINIC   
 CRYSTAL CLASS  (GROTH - 1921)        :  TRICLINIC PEDIAL                     

 SPACE GROUP (NONCENTROSYMMETRIC)     :  P 1             

 LATTICE PARAMETERS  (ANGSTROMS AND DEGREES) - CONVENTIONAL CELL
        A           B           C        ALPHA        BETA       GAMMA
     7.72670     7.73281     6.72513    90.39655    89.88439    89.91996


 NUMBER OF IRREDUCIBLE ATOMS IN THE CONVENTIONAL CELL:   48

 INPUT COORDINATES

 ATOM AT. N.              COORDINATES
   1   8     6.535098939170E-01  3.993902836223E-01  4.041714134556E-01
   2   8     5.867124510828E-01  6.593672730932E-01  6.577473744201E-01
   3   8     3.264817397157E-01  6.008974618433E-01  9.067880423494E-01
   4   8     3.867807220408E-01  3.444687970076E-01  1.603492476188E-01
   5   8     3.902217000675E-01  8.323412756169E-01  3.890680250944E-01
   6   8     1.558467824564E-01  4.022087586067E-01  6.368235121821E-01
   7   8     5.870414895043E-01  1.687457098909E-01  8.924653976159E-01
   8   8     8.232666306914E-01  6.018501008334E-01  1.390099534403E-01
   9   8     3.316105197092E-01  9.955403467285E-02  6.351481377916E-01
  10   8     8.933427474422E-01  3.401358766774E-01  8.853103609671E-01
  11   8     6.459979607354E-01  9.003200690771E-01  1.311230410457E-01
  12   8     8.653393452217E-02  6.587502276016E-01  3.840119343542E-01
  13   8     8.231444719158E-01  9.255994945461E-02  4.015766925563E-01
  14   8     8.896729568415E-01  8.347589845660E-01  6.542556991190E-01
  15   8     1.530497698335E-01  9.062157420476E-01  9.021705669897E-01
  16   8     8.622683000269E-02  1.675807154612E-01  1.537213769516E-01
  17   1     5.436820954556E-01  3.751751605005E-01  3.349274257666E-01
  18   1     7.186410548753E-01  4.702756772913E-01  3.081976481020E-01
  19   1     6.149253647311E-01  5.531017741043E-01  5.822158988884E-01
  20   1     6.963456085117E-01  7.225548507690E-01  6.750091932968E-01
  21   1     4.338523123489E-01  6.281795453335E-01  8.340995507547E-01
  22   1     2.640107068905E-01  7.110509236142E-01  9.241658946938E-01
  23   1     3.577049513248E-01  4.500381432593E-01  8.628687632686E-02
  24   1     2.776819382905E-01  2.814110580474E-01  1.801435452019E-01
  25   1     4.601565161796E-01  7.672396237031E-01  4.856123808123E-01
  26   1     3.638934468929E-01  9.416010225206E-01  4.591446268538E-01
  27   1     2.195359903472E-01  4.733811741213E-01  7.346500090801E-01
  28   1     4.681232451598E-02  3.743906031654E-01  7.059523988662E-01
  29   1     5.165842011659E-01  2.348777509039E-01  9.889174316820E-01
  30   1     6.122962097672E-01  5.951373392157E-02  9.614596554435E-01
  31   1     8.491345439987E-01  5.211966893321E-01  2.895641230907E-02
  32   1     9.326761657667E-01  6.253022122512E-01  2.092375559210E-01
  33   1     4.362312819348E-01  1.284309829120E-01  7.123085797890E-01
  34   1     2.677984582465E-01  2.087877687188E-01  6.175503604873E-01
  35   1     7.830868777840E-01  2.781400235170E-01  8.680832361176E-01
  36   1     9.604575520560E-01  2.740038726861E-01  9.838201854752E-01
  37   1     5.416436259341E-01  8.707667097766E-01  2.083836148433E-01
  38   1     7.106460517585E-01  7.915106426437E-01  1.117467086146E-01
  39   1     1.154496049317E-01  5.536502881562E-01  4.594709000807E-01
  40   1     1.959634737840E-01  7.223032581425E-01  3.667946111318E-01
  41   1     7.604318251556E-01  2.024201834867E-01  4.215785017719E-01
  42   1     7.558535198615E-01  2.560800730706E-02  3.032690623341E-01
  43   1     9.599535458890E-01  7.686156686337E-01  5.575430080045E-01
  44   1     8.608279110577E-01  9.418571909127E-01  5.827648011044E-01
  45   1     2.202732185953E-01  9.748586446523E-01  8.060986693088E-01
  46   1     4.572307117511E-02  8.782727608698E-01  8.295971586029E-01
  47   1     4.008729996880E-03  1.394238481006E-01  2.607762140594E-01
  48   1     1.108772202988E-01  5.982494657320E-02  7.950710832314E-02

 *******************************************************************************

 << INFORMATION >>: FROM NOW ON, ALL COORDINATES REFER TO THE PRIMITIVE CELL

 *******************************************************************************

 LATTICE PARAMETERS  (ANGSTROMS AND DEGREES) - PRIMITIVE CELL
       A          B          C        ALPHA      BETA     GAMMA        VOLUME
    7.72670    7.73281    6.72513    90.39655  89.88439  89.91996    401.810177

 COORDINATES OF THE EQUIVALENT ATOMS (FRACTIONAL UNITS)

 N. ATOM EQUIV AT. N.          X                  Y                  Z

   1   1   1    8 O    -3.46490106083E-01  3.99390283622E-01  4.04171413456E-01

   2   2   1    8 O    -4.13287548917E-01 -3.40632726907E-01 -3.42252625580E-01

   3   3   1    8 O     3.26481739716E-01 -3.99102538157E-01 -9.32119576506E-02

   4   4   1    8 O     3.86780722041E-01  3.44468797008E-01  1.60349247619E-01

   5   5   1    8 O     3.90221700068E-01 -1.67658724383E-01  3.89068025094E-01

   6   6   1    8 O     1.55846782456E-01  4.02208758607E-01 -3.63176487818E-01

   7   7   1    8 O    -4.12958510496E-01  1.68745709891E-01 -1.07534602384E-01

   8   8   1    8 O    -1.76733369309E-01 -3.98149899167E-01  1.39009953440E-01

   9   9   1    8 O     3.31610519709E-01  9.95540346728E-02 -3.64851862208E-01

  10  10   1    8 O    -1.06657252558E-01  3.40135876677E-01 -1.14689639033E-01

  11  11   1    8 O    -3.54002039265E-01 -9.96799309229E-02  1.31123041046E-01

  12  12   1    8 O     8.65339345222E-02 -3.41249772398E-01  3.84011934354E-01

  13  13   1    8 O    -1.76855528084E-01  9.25599494546E-02  4.01576692556E-01

  14  14   1    8 O    -1.10327043158E-01 -1.65241015434E-01 -3.45744300881E-01

  15  15   1    8 O     1.53049769833E-01 -9.37842579524E-02 -9.78294330103E-02

  16  16   1    8 O     8.62268300027E-02  1.67580715461E-01  1.53721376952E-01

  17  17   1    1 H    -4.56317904544E-01  3.75175160500E-01  3.34927425767E-01

  18  18   1    1 H    -2.81358945125E-01  4.70275677291E-01  3.08197648102E-01

  19  19   1    1 H    -3.85074635269E-01 -4.46898225896E-01 -4.17784101112E-01

  20  20   1    1 H    -3.03654391488E-01 -2.77445149231E-01 -3.24990806703E-01

  21  21   1    1 H     4.33852312349E-01 -3.71820454667E-01 -1.65900449245E-01

  22  22   1    1 H     2.64010706890E-01 -2.88949076386E-01 -7.58341053062E-02

  23  23   1    1 H     3.57704951325E-01  4.50038143259E-01  8.62868763269E-02

  24  24   1    1 H     2.77681938290E-01  2.81411058047E-01  1.80143545202E-01

  25  25   1    1 H     4.60156516180E-01 -2.32760376297E-01  4.85612380812E-01

  26  26   1    1 H     3.63893446893E-01 -5.83989774794E-02  4.59144626854E-01

  27  27   1    1 H     2.19535990347E-01  4.73381174121E-01 -2.65349990920E-01

  28  28   1    1 H     4.68123245160E-02  3.74390603165E-01 -2.94047601134E-01

  29  29   1    1 H    -4.83415798834E-01  2.34877750904E-01 -1.10825683180E-02

  30  30   1    1 H    -3.87703790233E-01  5.95137339216E-02 -3.85403445565E-02

  31  31   1    1 H    -1.50865456001E-01 -4.78803310668E-01  2.89564123091E-02

  32  32   1    1 H    -6.73238342333E-02 -3.74697787749E-01  2.09237555921E-01

  33  33   1    1 H     4.36231281935E-01  1.28430982912E-01 -2.87691420211E-01

  34  34   1    1 H     2.67798458247E-01  2.08787768719E-01 -3.82449639513E-01

  35  35   1    1 H    -2.16913122216E-01  2.78140023517E-01 -1.31916763882E-01

  36  36   1    1 H    -3.95424479440E-02  2.74003872686E-01 -1.61798145248E-02

  37  37   1    1 H    -4.58356374066E-01 -1.29233290223E-01  2.08383614843E-01

  38  38   1    1 H    -2.89353948241E-01 -2.08489357356E-01  1.11746708615E-01

  39  39   1    1 H     1.15449604932E-01 -4.46349711844E-01  4.59470900081E-01

  40  40   1    1 H     1.95963473784E-01 -2.77696741858E-01  3.66794611132E-01

  41  41   1    1 H    -2.39568174844E-01  2.02420183487E-01  4.21578501772E-01

  42  42   1    1 H    -2.44146480139E-01  2.56080073071E-02  3.03269062334E-01

  43  43   1    1 H    -4.00464541110E-02 -2.31384331366E-01 -4.42456991996E-01

  44  44   1    1 H    -1.39172088942E-01 -5.81428090873E-02 -4.17235198896E-01

  45  45   1    1 H     2.20273218595E-01 -2.51413553477E-02 -1.93901330691E-01

  46  46   1    1 H     4.57230711751E-02 -1.21727239130E-01 -1.70402841397E-01

  47  47   1    1 H     4.00872999688E-03  1.39423848101E-01  2.60776214059E-01

  48  48   1    1 H     1.10877220299E-01  5.98249465732E-02  7.95071083231E-02

 NUMBER OF SYMMETRY OPERATORS         :    1
 *******************************************************************************
 * GEOMETRY EDITING - INPUT COORDINATES ARE GIVEN IN ANGSTROM         
 *******************************************************************************

 GCALCO - MAX INDICES DIRECT LATTICE VECTOR    14    14    16
 NO.OF VECTORS CREATED 6999 STARS 3500 RMAX   165.36309 BOHR

 GEOMETRY FOR WAVE FUNCTION - DIMENSIONALITY OF THE SYSTEM    3
 (NON PERIODIC DIRECTION: LATTICE PARAMETER FORMALLY SET TO 500)
 *******************************************************************************
 LATTICE PARAMETERS (ANGSTROMS AND DEGREES) - BOHR = 0.5291772083 ANGSTROM
 PRIMITIVE CELL - CENTRING CODE 1/0 VOLUME=   401.810177 - DENSITY  1.191 g/cm^3
         A              B              C           ALPHA      BETA       GAMMA 
     7.72670335     7.73281457     6.72513204    90.396547  89.884392  89.919959
 *******************************************************************************
 ATOMS IN THE ASYMMETRIC UNIT   48 - ATOMS IN THE UNIT CELL:   48
     ATOM                 X/A                 Y/B                 Z/C    
 *******************************************************************************
      1 T   8 O    -3.464901060830E-01  3.993902836223E-01  4.041714134556E-01
      2 T   8 O    -4.132875489172E-01 -3.406327269068E-01 -3.422526255799E-01
      3 T   8 O     3.264817397157E-01 -3.991025381567E-01 -9.321195765059E-02
      4 T   8 O     3.867807220408E-01  3.444687970076E-01  1.603492476188E-01
      5 T   8 O     3.902217000675E-01 -1.676587243831E-01  3.890680250944E-01
      6 T   8 O     1.558467824564E-01  4.022087586067E-01 -3.631764878179E-01
      7 T   8 O    -4.129585104957E-01  1.687457098909E-01 -1.075346023841E-01
      8 T   8 O    -1.767333693086E-01 -3.981498991666E-01  1.390099534403E-01
      9 T   8 O     3.316105197092E-01  9.955403467285E-02 -3.648518622084E-01
     10 T   8 O    -1.066572525578E-01  3.401358766774E-01 -1.146896390329E-01
     11 T   8 O    -3.540020392646E-01 -9.967993092293E-02  1.311230410457E-01
     12 T   8 O     8.653393452217E-02 -3.412497723984E-01  3.840119343542E-01
     13 T   8 O    -1.768555280842E-01  9.255994945461E-02  4.015766925563E-01
     14 T   8 O    -1.103270431585E-01 -1.652410154340E-01 -3.457443008810E-01
     15 T   8 O     1.530497698335E-01 -9.378425795238E-02 -9.782943301032E-02
     16 T   8 O     8.622683000269E-02  1.675807154612E-01  1.537213769516E-01
     17 T   1 H    -4.563179045444E-01  3.751751605005E-01  3.349274257666E-01
     18 T   1 H    -2.813589451247E-01  4.702756772913E-01  3.081976481020E-01
     19 T   1 H    -3.850746352689E-01 -4.468982258957E-01 -4.177841011116E-01
     20 T   1 H    -3.036543914883E-01 -2.774451492310E-01 -3.249908067032E-01
     21 T   1 H     4.338523123489E-01 -3.718204546665E-01 -1.659004492453E-01
     22 T   1 H     2.640107068905E-01 -2.889490763858E-01 -7.583410530620E-02
     23 T   1 H     3.577049513248E-01  4.500381432593E-01  8.628687632686E-02
     24 T   1 H     2.776819382905E-01  2.814110580474E-01  1.801435452019E-01
     25 T   1 H     4.601565161796E-01 -2.327603762969E-01  4.856123808123E-01
     26 T   1 H     3.638934468929E-01 -5.839897747944E-02  4.591446268538E-01
     27 T   1 H     2.195359903472E-01  4.733811741213E-01 -2.653499909199E-01
     28 T   1 H     4.681232451598E-02  3.743906031654E-01 -2.940476011338E-01
     29 T   1 H    -4.834157988341E-01  2.348777509039E-01 -1.108256831802E-02
     30 T   1 H    -3.877037902328E-01  5.951373392157E-02 -3.854034455653E-02
     31 T   1 H    -1.508654560013E-01 -4.788033106679E-01  2.895641230907E-02
     32 T   1 H    -6.732383423330E-02 -3.746977877488E-01  2.092375559210E-01
     33 T   1 H     4.362312819348E-01  1.284309829120E-01 -2.876914202110E-01
     34 T   1 H     2.677984582465E-01  2.087877687188E-01 -3.824496395127E-01
     35 T   1 H    -2.169131222160E-01  2.781400235170E-01 -1.319167638824E-01
     36 T   1 H    -3.954244794397E-02  2.740038726861E-01 -1.617981452480E-02
     37 T   1 H    -4.583563740659E-01 -1.292332902234E-01  2.083836148433E-01
     38 T   1 H    -2.893539482415E-01 -2.084893573563E-01  1.117467086146E-01
     39 T   1 H     1.154496049317E-01 -4.463497118438E-01  4.594709000807E-01
     40 T   1 H     1.959634737840E-01 -2.776967418575E-01  3.667946111318E-01
     41 T   1 H    -2.395681748444E-01  2.024201834867E-01  4.215785017719E-01
     42 T   1 H    -2.441464801385E-01  2.560800730706E-02  3.032690623341E-01
     43 T   1 H    -4.004645411101E-02 -2.313843313663E-01 -4.424569919955E-01
     44 T   1 H    -1.391720889423E-01 -5.814280908726E-02 -4.172351988956E-01
     45 T   1 H     2.202732185953E-01 -2.514135534770E-02 -1.939013306912E-01
     46 T   1 H     4.572307117511E-02 -1.217272391302E-01 -1.704028413971E-01
     47 T   1 H     4.008729996880E-03  1.394238481006E-01  2.607762140594E-01
     48 T   1 H     1.108772202988E-01  5.982494657320E-02  7.950710832314E-02

 T = ATOM BELONGING TO THE ASYMMETRIC UNIT

 ****    1 SYMMOPS - TRANSLATORS IN FRACTIONAL UNITS
 **** MATRICES AND TRANSLATORS IN THE CRYSTALLOGRAPHIC REFERENCE FRAME
   V INV                    ROTATION MATRICES                   TRANSLATORS
   1   1  1.00  0.00  0.00  0.00  1.00  0.00  0.00  0.00  1.00  0.00  0.00  0.00

 DIRECT LATTICE VECTORS CARTESIAN COMPONENTS (ANGSTROM)
          X                    Y                    Z
   0.772669581048E+01   0.107940387047E-01   0.000000000000E+00
   0.000000000000E+00   0.773281457000E+01   0.000000000000E+00
   0.136345954635E-01  -0.465446088204E-01   0.672495714876E+01


 CARTESIAN COORDINATES - PRIMITIVE CELL
 *******************************************************************************
 *      ATOM          X(ANGSTROM)         Y(ANGSTROM)         Z(ANGSTROM)
 *******************************************************************************
    1     8 O    -2.671712937323E+00  3.065858976359E+00  2.718035436242E+00
    2     8 O    -3.198013648837E+00 -2.622580740868E+00 -2.301634241075E+00
    3     8 O     2.521354183123E+00 -3.078323351341E+00 -6.268464209521E-01
    4     8 O     2.990723281690E+00  2.660424865490E+00  1.078341819072E+00
    5     8 O     3.020429160198E+00 -1.310370777596E+00  2.616465796712E+00
    6     8 O     1.199228916589E+00  3.128791872496E+00 -2.442346318012E+00
    7     8 O    -3.192270983749E+00  1.305426949926E+00 -7.231655930418E-01
    8     8 O    -1.363669639728E+00 -3.087197172053E+00  9.348359801369E-01
    9     8 O     2.557279005802E+00  7.903941938090E-01 -2.453613138996E+00
   10     8 O    -8.256718933273E-01  2.634394584823E+00 -7.712829079028E-01
   11     8 O    -2.733478264065E+00 -7.807306045436E-01  8.817968322472E-01
   12     8 O     6.738572367146E-01 -2.655760846640E+00  2.582463803144E+00
   13     8 O    -1.361033532157E+00  6.951487102594E-01  2.700586049381E+00
   14     8 O    -8.571775858313E-01 -1.262876472847E+00 -2.325115607852E+00
   15     8 O     1.181235150623E+00 -7.190108185009E-01 -6.578987448817E-01
   16     8 O     6.683444149213E-01  1.289646432552E+00  1.033769672848E+00
   17     1 H    -3.521263041329E+00  2.880645368282E+00  2.252372586224E+00
   18     1 H    -2.169772832280E+00  3.619172670961E+00  2.072615976834E+00
   19     1 H    -2.981050888263E+00 -3.440492025473E+00 -2.809580177408E+00
   20     1 H    -2.350676232724E+00 -2.133582979636E+00 -2.185549248819E+00
   21     1 H     3.349982858679E+00 -2.862813839104E+00 -1.115673412134E+00
   22     1 H     2.038896455503E+00 -2.228010217309E+00 -5.099811085986E-01
   23     1 H     2.765053835440E+00  3.479906403436E+00  5.802755457983E-01
   24     1 H     2.148020053598E+00  2.170712128575E+00  1.211457622108E+00
   25     1 H     3.562110554093E+00 -1.817528520205E+00  3.265722451869E+00
   26     1 H     2.817954222813E+00 -4.690312910249E-01  3.087727940674E+00
   27     1 H     1.692669877082E+00  3.675289131914E+00 -1.784467318360E+00
   28     1 H     3.576953716278E-01  2.909284735641E+00 -1.977457517320E+00
   29     1 H    -3.735357933905E+00  1.811563919323E+00 -7.452979703687E-02
   30     1 H    -2.996194733705E+00  4.578176243273E-01 -2.591821656410E-01
   31     1 H    -1.165296677863E+00 -3.705473429352E+00  1.947306319603E-01
   32     1 H    -5.173379184849E-01 -2.907934088714E+00  1.407113597480E+00
   33     1 H     3.366703862391E+00  1.011232157857E+00 -1.934712472984E+00
   34     1 H     2.063982679265E+00  1.635208695775E+00 -2.571957437281E+00
   35     1 H    -1.677820344374E+00  2.154603871887E+00 -8.871345843120E-01
   36     1 H    -3.057530720904E-01  2.119147399368E+00 -1.088085593541E-01
   37     1 H    -3.538739048910E+00 -1.013983719848E+00  1.401370880324E+00
   38     1 H    -2.234226318456E+00 -1.620534044811E+00  7.514918269479E-01
   39     1 H     8.983086785968E-01 -3.471679280866E+00  3.089922114144E+00
   40     1 H     1.519151248034E+00 -2.162334485849E+00  2.466678042257E+00
   41     1 H    -1.845322360566E+00  1.543069629524E+00  2.835097359254E+00
   42     1 H    -1.882310634247E+00  1.812711055828E-01  2.039471448741E+00
   43     1 H    -3.154594912998E-01 -1.769090404222E+00 -2.975504311338E+00
   44     1 H    -1.081029229716E+00 -4.316897410466E-01 -2.805888833526E+00
   45     1 H     1.699340389077E+00 -1.830107397083E-01 -1.303978139985E+00
   46     1 H     3.509648886825E-01 -9.328692981172E-01 -1.145951806422E+00
   47     1 H     3.452981545743E-02  1.066044307511E+00  1.753708864965E+00
   48     1 H     8.577986008184E-01  4.601114042627E-01  5.346818964948E-01

 *******************************************************************************
 STARTING BASIS SET HANDLING 
 *******************************************************************************

 Loading internal basis set: DEF2-MSVP           

 Please cite in your publication:
 Fully Optimized Contracted Gaussian Basis Sets for Atoms Li to Kr. A. Schäfer, 
 H. Horn and R. Ahlrichs; J. Chem. Phys. 97, 2571 (1992).                       
                                                                                
                    
 S. Grimme, J. G. Brandenburg, C. Bannwarth, and A. Hansen, J. Chem. Phys., 143,
  054107 (2015).                                                                
                                                                                
                    

 *******************************************************************************
 LOCAL ATOMIC FUNCTIONS BASIS SET
 *******************************************************************************
   ATOM   X(AU)   Y(AU)   Z(AU)  N. TYPE  EXPONENT  S COEF   P COEF   D/F/G COEF
 *******************************************************************************
   1 O   -5.049   5.794   5.136
                                  1 S  
                                         6.773E+03 1.727E-03 0.000E+00 0.000E+00
                                         1.017E+03 1.325E-02 0.000E+00 0.000E+00
                                         2.313E+02 6.603E-02 0.000E+00 0.000E+00
                                         6.501E+01 2.353E-01 0.000E+00 0.000E+00
                                         2.050E+01 5.498E-01 0.000E+00 0.000E+00
                                  2 S  
                                         6.716E+00 1.000E+00 0.000E+00 0.000E+00
                                  3 S  
                                         1.147E+00 1.000E+00 0.000E+00 0.000E+00
                                  4 S  
                                         3.342E-01 1.000E+00 0.000E+00 0.000E+00
                           5-     7 P  
                                         1.769E+01 0.000E+00 4.359E-02 0.000E+00
                                         3.854E+00 0.000E+00 2.318E-01 0.000E+00
                                         1.047E+00 0.000E+00 5.146E-01 0.000E+00
                           8-    10 P  
                                         2.759E-01 0.000E+00 1.000E+00 0.000E+00
                          11-    15 D  
                                         8.000E-01 0.000E+00 0.000E+00 1.000E+00
   2 O   -6.043  -4.956  -4.349
   3 O    4.765  -5.817  -1.185
   4 O    5.652   5.027   2.038
   5 O    5.708  -2.476   4.944
   6 O    2.266   5.913  -4.615
   7 O   -6.033   2.467  -1.367
   8 O   -2.577  -5.834   1.767
   9 O    4.833   1.494  -4.637
  10 O   -1.560   4.978  -1.458
  11 O   -5.166  -1.475   1.666
  12 O    1.273  -5.019   4.880
  13 O   -2.572   1.314   5.103
  14 O   -1.620  -2.386  -4.394
  15 O    2.232  -1.359  -1.243
  16 O    1.263   2.437   1.954
  17 H   -6.654   5.444   4.256
                                241 S  
                                         1.874E+01 1.968E-02 0.000E+00 0.000E+00
                                         2.826E+00 1.380E-01 0.000E+00 0.000E+00
                                         6.401E-01 4.783E-01 0.000E+00 0.000E+00
                                242 S  
                                         1.756E-01 1.000E+00 0.000E+00 0.000E+00
  18 H   -4.100   6.839   3.917
  19 H   -5.633  -6.502  -5.309
  20 H   -4.442  -4.032  -4.130
  21 H    6.331  -5.410  -2.108
  22 H    3.853  -4.210  -0.964
  23 H    5.225   6.576   1.097
  24 H    4.059   4.102   2.289
  25 H    6.731  -3.435   6.171
  26 H    5.325  -0.886   5.835
  27 H    3.199   6.945  -3.372
  28 H    0.676   5.498  -3.737
  29 H   -7.059   3.423  -0.141
  30 H   -5.662   0.865  -0.490
  31 H   -2.202  -7.002   0.368
  32 H   -0.978  -5.495   2.659
  33 H    6.362   1.911  -3.656
  34 H    3.900   3.090  -4.860
  35 H   -3.171   4.072  -1.676
  36 H   -0.578   4.005  -0.206
  37 H   -6.687  -1.916   2.648
  38 H   -4.222  -3.062   1.420
  39 H    1.698  -6.561   5.839
  40 H    2.871  -4.086   4.661
  41 H   -3.487   2.916   5.358
  42 H   -3.557   0.343   3.854
  43 H   -0.596  -3.343  -5.623
  44 H   -2.043  -0.816  -5.302
  45 H    3.211  -0.346  -2.464
  46 H    0.663  -1.763  -2.166
  47 H    0.065   2.015   3.314
  48 H    1.621   0.869   1.010

 *******************************************************************************
 FINISHED BASIS SET HANDLING 
 *******************************************************************************

 INFORMATION **** SET_MPP **** PCRYSTAL CALCULATION
 INFORMATION **** READM2 **** NEW DEFAULT: FOCK/KS MATRIX MIXING SET TO 30 %
 INFORMATION **** READM2 **** NEW DEFAULT: FULL DIRECT SCF MODE
 INFORMATION **** READM2 **** NEW DEFAULT: COULOMB BIPOLAR BUFFER SET TO 32 Mb
 INFORMATION **** READM2 **** NEW DEFAULT: EXCHANGE BIPOLAR BUFFER SET TO 32 Mb

 *******************************************************************************
 NEW DEFAULT: DFT INTEGRATION GRID INCREASED TO XLGRID
 NEW DEFAULT: DIIS ACCELERATOR ACTIVE
 USE KEYWORD NODIIS TO TURN IT OFF
 *******************************************************************************

 INFORMATION **** RDDFTP **** HSE-3c calculation
 INFORMATION **** RDDFTP **** HSE screened hybrid functional combined with D3 and gCP

PLEASE CITE:
(1) HSE-3c Reference
 J. G. Brandenburg, E. Caldeweyer, and S. Grimme, 
 Phys. Chem. Chem. Phys. 18, 15519 (2016)
(2) DFT-D3 Reference
 S. Grimme, J. Antony, S. Ehrlich,
 and H. Krieg, J. Chem. Phys. 132, 154104 (2010)
(3) gCP Reference
 H. Kruse and S. Grimme J. Chem. Phys, 136, 154101 (2012)
 J. G. Brandenburg, M. Alessio, B. Civalleri, M. F. Peintinger
 T. Bredow, and S. Grimme, J. Phys. Chem. A, 117, 9282 (2013) 

 WARNING **** RDDFTP **** HSE3c-HJS ACTIVE
 RANGE SEPARATION - OMEGA:   0.110000000000000     
 WARNING **** RDDFTP **** HSE-3c has to be combined with def2-mSVP basis set
 WARNING **** RDDFTP **** Note: Harmonic frequencies are scaled by 0.95
 WARNING **** RDDFTP **** as recommended in original publication
 INFORMATION **** BIPOSIZE **** COULOMB BIPOLAR BUFFER SET TO    60000000
 INFORMATION **** EXCHSIZE **** EXCHANGE BIPOLAR BUFFER SIZE SET TO    40000000
 *******************************************************************************
 N. OF ATOMS PER CELL        48  COULOMB OVERLAP TOL         (T1) 10**   -6
 NUMBER OF SHELLS           176  COULOMB PENETRATION TOL     (T2) 10**   -6
 NUMBER OF AO               304  EXCHANGE OVERLAP TOL        (T3) 10**   -6
 N. OF ELECTRONS PER CELL   160  EXCHANGE PSEUDO OVP (F(G))  (T4) 10**   -6
 CORE ELECTRONS PER CELL     32  EXCHANGE PSEUDO OVP (P(G))  (T5) 10**  -12
 N. OF SYMMETRY OPERATORS     1  POLE ORDER IN MONO ZONE                  4
 *******************************************************************************
 TYPE OF CALCULATION :  RESTRICTED CLOSED SHELL
 KOHN-SHAM HAMILTONIAN

 (EXCHANGE)[CORRELATION] FUNCTIONAL:(HSE-3c)[PBEh-3c]

 RANGE-SEPARATED HYBRID FUNCTIONAL 
 OMEGA (SHORT-RANGE)[LONG-RANGE]:(    0.1100)[    0.0000]

 HYBRID EXCHANGE - PERCENTAGE OF FOCK EXCHANGE    42.0000

 CAPPA:IS1  1;IS2  1;IS3  2; K PTS MONK NET   2; SYMMOPS:K SPACE   2;G SPACE   1

 *******************************************************************************
 MAX NUMBER OF SCF CYCLES      50  CONVERGENCE ON DELTAP        10**-16
 WEIGHT OF F(I) IN F(I+1)      30% CONVERGENCE ON ENERGY        10**- 6
 S(K) EIGENV. THRESHOLD  10*10.**-4
 SHRINK. FACT.(MONKH.)    1  1  2  NUMBER OF K POINTS IN THE IBZ      2
 SHRINKING FACTOR(GILAT NET)    1  NUMBER OF K POINTS(GILAT NET)      2
 *******************************************************************************
 *** K POINTS COORDINATES (OBLIQUE COORDINATES IN UNITS OF IS =  1)
   1-R(  0  0  0)   2-R(  0  0  1)

 DIRECT LATTICE VECTORS COMPON. (A.U.)     RECIP. LATTICE VECTORS COMPON. (A.U.) 
        X            Y            Z              X            Y            Z
   14.6013390    0.0203978    0.0000000      0.4303157    0.0000000   -0.0008724
    0.0000000   14.6129018    0.0000000     -0.0006007    0.4299752    0.0029772
    0.0257657   -0.0879566   12.7083273      0.0000000    0.0000000    0.4944148

 DISK SPACE FOR EIGENVECTORS (FTN 10)      184832 REALS

 SYMMETRY ADAPTION OF THE BLOCH FUNCTIONS DISABLED
 TTTTTTTTTTTTTTTTTTTTTTTTTTTTTT gordsh1     TELAPSE        0.33 TCPU        0.05

 MATRIX SIZE: P(G)  184224, F(G)   33609, P(G) IRR   92776, F(G) IRR   33865
 MAX G-VECTOR INDEX FOR 1- AND 2-ELECTRON INTEGRALS  71

 TTTTTTTTTTTTTTTTTTTTTTTTTTTTTT INPUT       TELAPSE        0.37 TCPU        0.09

 NEIGHBORS OF THE NON-EQUIVALENT ATOMS

 N = NUMBER OF NEIGHBORS AT DISTANCE R
    ATOM  N     R/ANG      R/AU   NEIGHBORS (ATOM LABELS AND CELL INDICES)
   1 O    1     0.9863     1.8639   17 H    0 0 0
   1 O    1     0.9873     1.8656   18 H    0 0 0
   1 O    1     1.7068     3.2254   19 H    0 1 1
   1 O    1     1.7365     3.2816   41 H    0 0 0
   1 O    1     2.6689     5.0435    4 O   -1 0 0
   1 O    1     2.6762     5.0573    2 O    0 1 1

   2 O    1     0.9852     1.8617   20 H    0 0 0
   2 O    1     0.9869     1.8651   19 H    0 0 0
   2 O    1     1.6908     3.1952   21 H   -1 0 0
   2 O    1     1.7343     3.2773   25 H   -1 0-1
   2 O    1     2.6555     5.0183    3 O   -1 0 0
   2 O    1     2.6762     5.0573    1 O    0-1-1

   3 O    1     0.9846     1.8606   22 H    0 0 0
   3 O    1     0.9859     1.8631   21 H    0 0 0
   3 O    1     1.7018     3.2160   23 H    0-1 0
   3 O    1     1.7279     3.2653   27 H    0-1 0
   3 O    1     2.6555     5.0183    2 O    1 0 0
   3 O    1     2.6654     5.0368    4 O    0-1 0

   4 O    1     0.9837     1.8589   24 H    0 0 0
   4 O    1     0.9852     1.8617   23 H    0 0 0
   4 O    1     1.7051     3.2221   17 H    1 0 0
   4 O    1     1.7415     3.2909   29 H    1 0 0
   4 O    1     2.6654     5.0368    3 O    0 1 0
   4 O    1     2.6689     5.0435    1 O    1 0 0

   5 O    1     0.9854     1.8621   26 H    0 0 0
   5 O    1     0.9860     1.8632   25 H    0 0 0
   5 O    1     1.7129     3.2369   37 H    1 0 0
   5 O    1     1.7327     3.2743   40 H    0 0 0
   5 O    1     2.6759     5.0567    9 O    0 0 1
   5 O    1     2.6820     5.0682   11 O    1 0 0

   6 O    1     0.9861     1.8635   28 H    0 0 0
   6 O    1     0.9874     1.8659   27 H    0 0 0
   6 O    1     1.7062     3.2243   39 H    0 1-1
   6 O    1     1.7307     3.2706   34 H    0 0 0
   6 O    1     2.6715     5.0485   10 O    0 0 0
   6 O    1     2.6759     5.0567   12 O    0 1-1

   7 O    1     0.9858     1.8629   29 H    0 0 0
   7 O    1     0.9860     1.8632   30 H    0 0 0
   7 O    1     1.7101     3.2316   33 H   -1 0 0
   7 O    1     1.7440     3.2957   35 H    0 0 0
   7 O    1     2.6718     5.0489   11 O    0 0 0
   7 O    1     2.6796     5.0636    9 O   -1 0 0

   8 O    1     0.9846     1.8606   31 H    0 0 0
   8 O    1     0.9856     1.8626   32 H    0 0 0
   8 O    1     1.7154     3.2416   38 H    0 0 0
   8 O    1     1.7315     3.2720   18 H    0-1 0
   8 O    1     2.6556     5.0184   12 O    0 0 0
   8 O    1     2.6831     5.0703   11 O    0 0 0

   9 O    1     0.9854     1.8622   34 H    0 0 0
   9 O    1     0.9865     1.8642   33 H    0 0 0
   9 O    1     1.7126     3.2364   26 H    0 0-1
   9 O    1     1.7336     3.2760   45 H    0 0 0
   9 O    1     2.6759     5.0567    5 O    0 0-1
   9 O    1     2.6796     5.0636    7 O    1 0 0

  10 O    1     0.9848     1.8610   35 H    0 0 0
  10 O    1     0.9873     1.8656   36 H    0 0 0
  10 O    1     1.7120     3.2351   28 H    0 0 0
  10 O    1     1.7288     3.2670   31 H    0 1 0
  10 O    1     2.6715     5.0485    6 O    0 0 0
  10 O    1     2.6917     5.0866    8 O    0 1 0

  11 O    1     0.9856     1.8626   38 H    0 0 0
  11 O    1     0.9863     1.8639   37 H    0 0 0
  11 O    1     1.7044     3.2208   30 H    0 0 0
  11 O    1     1.7292     3.2677   42 H    0 0 0
  11 O    1     2.6718     5.0489    7 O    0 0 0
  11 O    1     2.6820     5.0682    5 O   -1 0 0

  12 O    1     0.9856     1.8625   40 H    0 0 0
  12 O    1     0.9867     1.8646   39 H    0 0 0
  12 O    1     1.6923     3.1980   32 H    0 0 0
  12 O    1     1.7377     3.2838   43 H    0 0 1
  12 O    1     2.6556     5.0184    8 O    0 0 0
  12 O    1     2.6759     5.0567    6 O    0-1 1

  13 O    1     0.9857     1.8627   41 H    0 0 0
  13 O    1     0.9863     1.8639   42 H    0 0 0
  13 O    1     1.7169     3.2445   44 H    0 0 1
  13 O    1     1.7268     3.2631   47 H    0 0 0
  13 O    1     2.6784     5.0614   14 O    0 0 1
  13 O    1     2.6926     5.0883   16 O    0 0 0

  14 O    1     0.9860     1.8632   44 H    0 0 0
  14 O    1     0.9863     1.8638   43 H    0 0 0
  14 O    1     1.7202     3.2506   46 H    0 0 0
  14 O    1     1.7344     3.2775   20 H    0 0 0
  14 O    1     2.6784     5.0614   13 O    0 0-1
  14 O    1     2.6890     5.0814   15 O    0 0 0

  15 O    1     0.9865     1.8642   45 H    0 0 0
  15 O    1     0.9865     1.8643   46 H    0 0 0
  15 O    1     1.7080     3.2276   48 H    0 0 0
  15 O    1     1.7420     3.2919   22 H    0 0 0
  15 O    1     2.6757     5.0564   16 O    0 0 0
  15 O    1     2.6890     5.0814   14 O    0 0 0

  16 O    1     0.9849     1.8612   47 H    0 0 0
  16 O    1     0.9865     1.8641   48 H    0 0 0
  16 O    1     1.7153     3.2415   36 H    0 0 0
  16 O    1     1.7313     3.2716   24 H    0 0 0
  16 O    1     2.6757     5.0564   15 O    0 0 0
  16 O    1     2.6926     5.0883   13 O    0 0 0

  17 H    1     0.9863     1.8639    1 O    0 0 0
  17 H    1     1.5506     2.9301   18 H    0 0 0
  17 H    1     1.7051     3.2221    4 O   -1 0 0
  17 H    1     2.2217     4.1984   19 H    0 1 1
  17 H    1     2.2220     4.1990   41 H    0 0 0
  17 H    1     2.2841     4.3162   23 H   -1 0 0

  18 H    1     0.9873     1.8656    1 O    0 0 0
  18 H    1     1.5506     2.9301   17 H    0 0 0
  18 H    1     1.7315     3.2720    8 O    0 1 0
  18 H    1     2.1035     3.9750   19 H    0 1 1
  18 H    1     2.1511     4.0650   32 H    0 1 0
  18 H    1     2.1684     4.0977   31 H    0 1 0

  19 H    1     0.9869     1.8651    2 O    0 0 0
  19 H    1     1.5795     2.9848   20 H    0 0 0
  19 H    1     1.7068     3.2254    1 O    0-1-1
  19 H    1     2.1035     3.9750   18 H    0-1-1
  19 H    1     2.1463     4.0559   25 H   -1 0-1
  19 H    1     2.2217     4.1984   17 H    0-1-1

  20 H    1     0.9852     1.8617    2 O    0 0 0
  20 H    1     1.5795     2.9848   19 H    0 0 0
  20 H    1     1.7344     3.2775   14 O    0 0 0
  20 H    1     2.2121     4.1802   44 H    0 0 0
  20 H    1     2.2134     4.1827   43 H    0 0 0
  20 H    1     2.2552     4.2617   25 H   -1 0-1

  21 H    1     0.9859     1.8631    3 O    0 0 0
  21 H    1     1.5776     2.9812   22 H    0 0 0
  21 H    1     1.6908     3.1952    2 O    1 0 0
  21 H    1     2.1497     4.0624   27 H    0-1 0
  21 H    1     2.2668     4.2837   19 H    1 0 0
  21 H    1     2.2695     4.2888   23 H    0-1 0

  22 H    1     0.9846     1.8606    3 O    0 0 0
  22 H    1     1.5776     2.9812   21 H    0 0 0
  22 H    1     1.7420     3.2919   15 O    0 0 0
  22 H    1     2.2199     4.1949   45 H    0 0 0
  22 H    1     2.2206     4.1963   46 H    0 0 0
  22 H    1     2.2564     4.2640   27 H    0-1 0

  23 H    1     0.9852     1.8617    4 O    0 0 0
  23 H    1     1.5790     2.9838   24 H    0 0 0
  23 H    1     1.7018     3.2160    3 O    0 1 0
  23 H    1     2.1633     4.0881   29 H    1 0 0
  23 H    1     2.2695     4.2888   21 H    0 1 0
  23 H    1     2.2841     4.3162   17 H    1 0 0

  24 H    1     0.9837     1.8589    4 O    0 0 0
  24 H    1     1.5790     2.9838   23 H    0 0 0
  24 H    1     1.7313     3.2716   16 O    0 0 0
  24 H    1     2.2470     4.2461   48 H    0 0 0
  24 H    1     2.2744     4.2980   29 H    1 0 0
  24 H    1     2.4158     4.5651   17 H    1 0 0

  25 H    1     0.9860     1.8632    5 O    0 0 0
  25 H    1     1.5505     2.9299   26 H    0 0 0
  25 H    1     1.7343     3.2773    2 O    1 0 1
  25 H    1     2.1285     4.0223   37 H    1 0 0
  25 H    1     2.1463     4.0559   19 H    1 0 1
  25 H    1     2.2206     4.1963   40 H    0 0 0

  26 H    1     0.9854     1.8621    5 O    0 0 0
  26 H    1     1.5505     2.9299   25 H    0 0 0
  26 H    1     1.7126     3.2364    9 O    0 0 1
  26 H    1     2.2226     4.2001   40 H    0 0 0
  26 H    1     2.2374     4.2281   37 H    1 0 0
  26 H    1     2.2957     4.3383   33 H    0 0 1

  27 H    1     0.9874     1.8659    6 O    0 0 0
  27 H    1     1.5512     2.9313   28 H    0 0 0
  27 H    1     1.7279     3.2653    3 O    0 1 0
  27 H    1     2.1160     3.9986   39 H    0 1-1
  27 H    1     2.1497     4.0624   21 H    0 1 0
  27 H    1     2.2181     4.1916   34 H    0 0 0

  28 H    1     0.9861     1.8635    6 O    0 0 0
  28 H    1     1.5512     2.9313   27 H    0 0 0
  28 H    1     1.7120     3.2351   10 O    0 0 0
  28 H    1     2.1346     4.0337   36 H    0 0 0
  28 H    1     2.2109     4.1780   34 H    0 0 0
  28 H    1     2.2318     4.2174   39 H    0 1-1

  29 H    1     0.9858     1.8629    7 O    0 0 0
  29 H    1     1.5534     2.9355   30 H    0 0 0
  29 H    1     1.7415     3.2909    4 O   -1 0 0
  29 H    1     2.1233     4.0124   33 H   -1 0 0
  29 H    1     2.1633     4.0881   23 H   -1 0 0
  29 H    1     2.2386     4.2304   35 H    0 0 0

  30 H    1     0.9860     1.8632    7 O    0 0 0
  30 H    1     1.5534     2.9355   29 H    0 0 0
  30 H    1     1.7044     3.2208   11 O    0 0 0
  30 H    1     2.2275     4.2094   33 H   -1 0 0
  30 H    1     2.2386     4.2304   35 H    0 0 0
  30 H    1     2.2843     4.3167   37 H    0 0 0

  31 H    1     0.9846     1.8606    8 O    0 0 0
  31 H    1     1.5893     3.0033   32 H    0 0 0
  31 H    1     1.7288     3.2670   10 O    0-1 0
  31 H    1     2.1147     3.9963   36 H    0-1 0
  31 H    1     2.1684     4.0977   18 H    0-1 0
  31 H    1     2.2227     4.2002   35 H    0-1 0

  32 H    1     0.9856     1.8626    8 O    0 0 0
  32 H    1     1.5893     3.0033   31 H    0 0 0
  32 H    1     1.6923     3.1980   12 O    0 0 0
  32 H    1     2.1511     4.0650   18 H    0-1 0
  32 H    1     2.2439     4.2403   38 H    0 0 0
  32 H    1     2.2702     4.2900   39 H    0 0 0

  33 H    1     0.9865     1.8642    9 O    0 0 0
  33 H    1     1.5788     2.9834   34 H    0 0 0
  33 H    1     1.7101     3.2316    7 O    1 0 0
  33 H    1     2.1233     4.0124   29 H    1 0 0
  33 H    1     2.1457     4.0548   45 H    0 0 0
  33 H    1     2.2275     4.2094   30 H    1 0 0

  34 H    1     0.9854     1.8622    9 O    0 0 0
  34 H    1     1.5788     2.9834   33 H    0 0 0
  34 H    1     1.7307     3.2706    6 O    0 0 0
  34 H    1     2.2109     4.1780   28 H    0 0 0
  34 H    1     2.2181     4.1916   27 H    0 0 0
  34 H    1     2.2465     4.2452   45 H    0 0 0

  35 H    1     0.9848     1.8610   10 O    0 0 0
  35 H    1     1.5779     2.9817   36 H    0 0 0
  35 H    1     1.7440     3.2957    7 O    0 0 0
  35 H    1     2.2227     4.2002   31 H    0 1 0
  35 H    1     2.2386     4.2304   29 H    0 0 0
  35 H    1     2.2386     4.2304   30 H    0 0 0

  36 H    1     0.9873     1.8656   10 O    0 0 0
  36 H    1     1.5779     2.9817   35 H    0 0 0
  36 H    1     1.7153     3.2415   16 O    0 0 0
  36 H    1     2.1147     3.9963   31 H    0 1 0
  36 H    1     2.1261     4.0178   48 H    0 0 0
  36 H    1     2.1346     4.0337   28 H    0 0 0

  37 H    1     0.9863     1.8639   11 O    0 0 0
  37 H    1     1.5786     2.9831   38 H    0 0 0
  37 H    1     1.7129     3.2369    5 O   -1 0 0
  37 H    1     2.1285     4.0223   25 H   -1 0 0
  37 H    1     2.1400     4.0440   42 H    0 0 0
  37 H    1     2.2374     4.2281   26 H   -1 0 0

  38 H    1     0.9856     1.8626   11 O    0 0 0
  38 H    1     1.5786     2.9831   37 H    0 0 0
  38 H    1     1.7154     3.2416    8 O    0 0 0
  38 H    1     2.2426     4.2379   42 H    0 0 0
  38 H    1     2.2439     4.2403   32 H    0 0 0
  38 H    1     2.4082     4.5509   31 H    0 0 0

  39 H    1     0.9867     1.8646   12 O    0 0 0
  39 H    1     1.5774     2.9809   40 H    0 0 0
  39 H    1     1.7062     3.2243    6 O    0-1 1
  39 H    1     2.1160     3.9986   27 H    0-1 1
  39 H    1     2.1489     4.0608   43 H    0 0 1
  39 H    1     2.2318     4.2174   28 H    0-1 1

  40 H    1     0.9856     1.8625   12 O    0 0 0
  40 H    1     1.5774     2.9809   39 H    0 0 0
  40 H    1     1.7327     3.2743    5 O    0 0 0
  40 H    1     2.2206     4.1963   25 H    0 0 0
  40 H    1     2.2226     4.2001   26 H    0 0 0
  40 H    1     2.2543     4.2599   43 H    0 0 1

  41 H    1     0.9857     1.8627   13 O    0 0 0
  41 H    1     1.5776     2.9813   42 H    0 0 0
  41 H    1     1.7365     3.2816    1 O    0 0 0
  41 H    1     2.2205     4.1962   47 H    0 0 0
  41 H    1     2.2220     4.1990   17 H    0 0 0
  41 H    1     2.2354     4.2242   18 H    0 0 0

  42 H    1     0.9863     1.8639   13 O    0 0 0
  42 H    1     1.5776     2.9813   41 H    0 0 0
  42 H    1     1.7292     3.2677   11 O    0 0 0
  42 H    1     2.1304     4.0259   47 H    0 0 0
  42 H    1     2.1400     4.0440   37 H    0 0 0
  42 H    1     2.1522     4.0670   44 H    0 0 1

  43 H    1     0.9863     1.8638   14 O    0 0 0
  43 H    1     1.5503     2.9297   44 H    0 0 0
  43 H    1     1.7377     3.2838   12 O    0 0-1
  43 H    1     2.1191     4.0045   46 H    0 0 0
  43 H    1     2.1489     4.0608   39 H    0 0-1
  43 H    1     2.2134     4.1827   20 H    0 0 0

  44 H    1     0.9860     1.8632   14 O    0 0 0
  44 H    1     1.5503     2.9297   43 H    0 0 0
  44 H    1     1.7169     3.2445   13 O    0 0-1
  44 H    1     2.1522     4.0670   42 H    0 0-1
  44 H    1     2.2121     4.1802   20 H    0 0 0
  44 H    1     2.2488     4.2496   46 H    0 0 0

  45 H    1     0.9865     1.8642   15 O    0 0 0
  45 H    1     1.5509     2.9308   46 H    0 0 0
  45 H    1     1.7336     3.2760    9 O    0 0 0
  45 H    1     2.1219     4.0098   48 H    0 0 0
  45 H    1     2.1457     4.0548   33 H    0 0 0
  45 H    1     2.2199     4.1949   22 H    0 0 0

  46 H    1     0.9865     1.8643   15 O    0 0 0
  46 H    1     1.5509     2.9308   45 H    0 0 0
  46 H    1     1.7202     3.2506   14 O    0 0 0
  46 H    1     2.1191     4.0045   43 H    0 0 0
  46 H    1     2.2206     4.1963   22 H    0 0 0
  46 H    1     2.2409     4.2348   48 H    0 0 0

  47 H    1     0.9849     1.8612   16 O    0 0 0
  47 H    1     1.5909     3.0064   48 H    0 0 0
  47 H    1     1.7268     3.2631   13 O    0 0 0
  47 H    1     2.1304     4.0259   42 H    0 0 0
  47 H    1     2.1665     4.0941   36 H    0 0 0
  47 H    1     2.2205     4.1962   41 H    0 0 0

  48 H    1     0.9865     1.8641   16 O    0 0 0
  48 H    1     1.5909     3.0064   47 H    0 0 0
  48 H    1     1.7080     3.2276   15 O    0 0 0
  48 H    1     2.1219     4.0098   45 H    0 0 0
  48 H    1     2.1261     4.0178   36 H    0 0 0
  48 H    1     2.2409     4.2348   46 H    0 0 0


 SYMMETRY ALLOWED INTERNAL DEGREE(S) OF FREEDOM: 141
 TTTTTTTTTTTTTTTTTTTTTTTTTTTTTT SYMM        TELAPSE        0.38 TCPU        0.10
 TTTTTTTTTTTTTTTTTTTTTTTTTTTTTT INT_SCREEN  TELAPSE        0.39 TCPU        0.10

 DFT PARAMETERS

     ATOM       ELECTRONS   NET CHARGE   R(ANGSTROM)
   1   8  O       8.0000      0.0000     0.74000000
  17   1  H       1.0000      0.0000     1.11000000

 SIZE OF GRID=    1066639
 TTTTTTTTTTTTTTTTTTTTTTTTTTTTTT MAKE_GRID2  TELAPSE       15.37 TCPU       15.08
 BECKE WEIGHT FUNCTION
 RADSAFE =     2.00
 TOLERANCES - DENSITY:10**- 6; POTENTIAL:10**- 9; GRID WGT:10**-14

 RADIAL INTEGRATION  - INTERVALS (POINTS,UPPER LIMIT):            1( 75,  4.0*R)

 ANGULAR INTEGRATION - INTERVALS (ACCURACY LEVEL [N. POINTS] UPPER LIMIT):
  1(  4[  86]   0.2)  2(  8[ 194]   0.5)  3( 12[ 350]   0.9)  4( 16[ 974]   3.5)
  5( 12[ 350]9999.0)
 TTTTTTTTTTTTTTTTTTTTTTTTTTTTTT INT_CALC    TELAPSE       15.41 TCPU       15.12
 EEEEEEEEEE INT_CALC TERMINATION  DATE 25 03 2019 TIME 17:52:55.9

 *******************************************************************************
 !drive by JGB                                                                   
 CRYSTAL - SCF - TYPE OF CALCULATION :  RESTRICTED CLOSED SHELL
 *******************************************************************************

 CAPPA:IS1  1;IS2  1;IS3  2; K PTS MONK NET   2; SYMMOPS:K SPACE   2;G SPACE   1

 TTTTTTTTTTTTTTTTTTTTTTTTTTTTTT SDIK        TELAPSE       15.84 TCPU       15.55

 AAAAAAAAAAAAAAAAAAAAAAAAAAAAAAAAAAAAAAAAAAAAAAAAAAAAAAAAAAAAAAAAAAAAAAAAAAAAAAA
         ATOMIC WAVEFUNCTION(S)


 NUCLEAR CHARGE  8.0  SYMMETRY SPECIES            S    P
 N. ELECTRONS    8.0  NUMBER OF PRIMITIVE GTOS    8    4
                      NUMBER OF CONTRACTED GTOS   4    2
                      NUMBER OF CLOSED SHELLS     2    0
                      OPEN SHELL OCCUPATION       0    4

  ZNUC SCFIT  TOTAL HF ENERGY   KINETIC ENERGY   VIRIAL THEOREM ACCURACY
   8.0  12   -7.477373220E+01  7.477365593E+01 -2.000001020E+00  3.8E-06

 NUCLEAR CHARGE  1.0  SYMMETRY SPECIES            S
 N. ELECTRONS    1.0  NUMBER OF PRIMITIVE GTOS    4
                      NUMBER OF CONTRACTED GTOS   2
                      NUMBER OF CLOSED SHELLS     0
                      OPEN SHELL OCCUPATION       1

  ZNUC SCFIT  TOTAL HF ENERGY   KINETIC ENERGY   VIRIAL THEOREM ACCURACY
   1.0   1   -4.977266687E-01  5.190767460E-01 -1.958869132E+00  1.8E-16

 AAAAAAAAAAAAAAAAAAAAAAAAAAAAAAAAAAAAAAAAAAAAAAAAAAAAAAAAAAAAAAAAAAAAAAAAAAAAAAA

 CHARGE NORMALIZATION FACTOR   1.00000000
 TOTAL ATOMIC CHARGES:
   8.0000000   8.0000000   8.0000000   8.0000000   8.0000000   8.0000000
   8.0000000   8.0000000   8.0000000   8.0000000   8.0000000   8.0000000
   8.0000000   8.0000000   8.0000000   8.0000000   1.0000000   1.0000000
   1.0000000   1.0000000   1.0000000   1.0000000   1.0000000   1.0000000
   1.0000000   1.0000000   1.0000000   1.0000000   1.0000000   1.0000000
   1.0000000   1.0000000   1.0000000   1.0000000   1.0000000   1.0000000
   1.0000000   1.0000000   1.0000000   1.0000000   1.0000000   1.0000000
   1.0000000   1.0000000   1.0000000   1.0000000   1.0000000   1.0000000
 TTTTTTTTTTTTTTTTTTTTTTTTTTTTTT MOQGAD      TELAPSE       16.02 TCPU       15.73
 TTTTTTTTTTTTTTTTTTTTTTTTTTTTTT SHELLXN     TELAPSE       51.78 TCPU       51.49
 TTTTTTTTTTTTTTTTTTTTTTTTTTTTTT MONMO3      TELAPSE       53.05 TCPU       52.76
 NUMERICALLY INTEGRATED DENSITY    159.9999822518
 TTTTTTTTTTTTTTTTTTTTTTTTTTTTTT NUMDFT      TELAPSE       54.98 TCPU       54.68
 CYC   0 ETOT(AU) -1.221275602264E+03 DETOT -1.22E+03 tst  0.00E+00 PX  1.00E+00
 TTTTTTTTTTTTTTTTTTTTTTTTTTTTTT DIIS        TELAPSE       54.99 TCPU       54.69
 TTTTTTTTTTTTTTTTTTTTTTTTTTTTTT FDIK        TELAPSE       55.19 TCPU       54.88
 INSULATING STATE
 TOP OF VALENCE BANDS -    BAND     80; K    1; EIG -4.1288524E-01 AU
 BOTTOM OF VIRTUAL BANDS - BAND     81; K    1; EIG -8.1472012E-02 AU
 DIRECT ENERGY BAND GAP:   9.0182 eV
 TTTTTTTTTTTTTTTTTTTTTTTTTTTTTT PDIG        TELAPSE       55.20 TCPU       54.89
 CHARGE NORMALIZATION FACTOR   1.00000000
 TOTAL ATOMIC CHARGES:
   9.0678002   9.0742307   9.0733363   9.0737322   9.0673024   9.0666808
   9.0684322   9.0723851   9.0762426   9.0736014   9.0745044   9.0745885
   9.0730685   9.0667173   9.0685528   9.0736986   0.4615458   0.4743156
   0.4625557   0.4596759   0.4603713   0.4594326   0.4599139   0.4576078
   0.4733491   0.4610581   0.4725687   0.4625443   0.4722939   0.4608610
   0.4636033   0.4600280   0.4633717   0.4596900   0.4595660   0.4745466
   0.4632358   0.4574114   0.4629907   0.4592142   0.4593042   0.4729959
   0.4732748   0.4635572   0.4738412   0.4643424   0.4630050   0.4630537
 TTTTTTTTTTTTTTTTTTTTTTTTTTTTTT MOQGAD      TELAPSE       55.21 TCPU       54.90
 TTTTTTTTTTTTTTTTTTTTTTTTTTTTTT SHELLXN     TELAPSE       92.14 TCPU       91.82
 TTTTTTTTTTTTTTTTTTTTTTTTTTTTTT MONMO3      TELAPSE       93.28 TCPU       92.96
 NUMERICALLY INTEGRATED DENSITY    159.9999796696
 TTTTTTTTTTTTTTTTTTTTTTTTTTTTTT NUMDFT      TELAPSE       97.19 TCPU       96.87
 CYC   1 ETOT(AU) -1.220358174408E+03 DETOT  9.17E-01 tst  0.00E+00 PX  1.00E+00
 TTTTTTTTTTTTTTTTTTTTTTTTTTTTTT DIIS        TELAPSE       97.22 TCPU       96.90
 DIIS TEST: 0.15767E+01 AT SCF   CYCLE   1 - MIX   30 %
 TTTTTTTTTTTTTTTTTTTTTTTTTTTTTT FDIK        TELAPSE       97.28 TCPU       96.96
 INSULATING STATE
 TOP OF VALENCE BANDS -    BAND     80; K    1; EIG -3.1641259E-01 AU
 BOTTOM OF VIRTUAL BANDS - BAND     81; K    1; EIG -2.2166865E-02 AU
 DIRECT ENERGY BAND GAP:   8.0068 eV
 TTTTTTTTTTTTTTTTTTTTTTTTTTTTTT PDIG        TELAPSE       97.29 TCPU       96.97
 CHARGE NORMALIZATION FACTOR   1.00000000
 TOTAL ATOMIC CHARGES:
   8.8623035   8.8703018   8.8689858   8.8691165   8.8616214   8.8622022
   8.8625433   8.8655627   8.8695784   8.8660294   8.8702196   8.8699602
   8.8668555   8.8601823   8.8610946   8.8655803   0.5615335   0.5855824
   0.5623630   0.5598340   0.5579114   0.5602436   0.5587428   0.5553768
   0.5843111   0.5609960   0.5831856   0.5613555   0.5829847   0.5611618
   0.5673399   0.5585943   0.5646420   0.5600565   0.5593670   0.5873212
   0.5638711   0.5543101   0.5638381   0.5585814   0.5583541   0.5852510
   0.5836564   0.5637304   0.5851832   0.5665755   0.5664685   0.5651399
 TTTTTTTTTTTTTTTTTTTTTTTTTTTTTT MOQGAD      TELAPSE       97.30 TCPU       96.98
 TTTTTTTTTTTTTTTTTTTTTTTTTTTTTT SHELLXN     TELAPSE      134.25 TCPU      133.93
 TTTTTTTTTTTTTTTTTTTTTTTTTTTTTT MONMO3      TELAPSE      135.42 TCPU      135.09
 NUMERICALLY INTEGRATED DENSITY    159.9999801210
 TTTTTTTTTTTTTTTTTTTTTTTTTTTTTT NUMDFT      TELAPSE      139.31 TCPU      138.99
 CYC   2 ETOT(AU) -1.220685316257E+03 DETOT -3.27E-01 tst  1.76E-03 PX  1.19E-01
 TTTTTTTTTTTTTTTTTTTTTTTTTTTTTT DIIS        TELAPSE      139.35 TCPU      139.02
 DIIS TEST: 0.33465E+00 AT SCF   CYCLE   2 - DIIS ACTIVE - HISTORY:     2 CYCLES
 TTTTTTTTTTTTTTTTTTTTTTTTTTTTTT FDIK        TELAPSE      139.41 TCPU      139.07
 INSULATING STATE
 TOP OF VALENCE BANDS -    BAND     80; K    1; EIG -3.6027826E-01 AU
 BOTTOM OF VIRTUAL BANDS - BAND     81; K    1; EIG -2.3445814E-02 AU
 DIRECT ENERGY BAND GAP:   9.1657 eV
 TTTTTTTTTTTTTTTTTTTTTTTTTTTTTT PDIG        TELAPSE      139.42 TCPU      139.08
 CHARGE NORMALIZATION FACTOR   1.00000000
 TOTAL ATOMIC CHARGES:
   8.9338989   8.9414344   8.9402236   8.9405938   8.9318806   8.9334460
   8.9344224   8.9379124   8.9415557   8.9378324   8.9413165   8.9412904
   8.9381558   8.9324479   8.9323049   8.9380425   0.5266997   0.5481353
   0.5275864   0.5241502   0.5237097   0.5238882   0.5239937   0.5205117
   0.5474184   0.5265904   0.5461323   0.5272501   0.5460273   0.5265788
   0.5309013   0.5241075   0.5293124   0.5242919   0.5237476   0.5487251
   0.5283530   0.5194389   0.5284964   0.5229590   0.5228194   0.5475462
   0.5463020   0.5289881   0.5473944   0.5308726   0.5308628   0.5294510
 TTTTTTTTTTTTTTTTTTTTTTTTTTTTTT MOQGAD      TELAPSE      139.43 TCPU      139.09
 TTTTTTTTTTTTTTTTTTTTTTTTTTTTTT SHELLXN     TELAPSE      176.36 TCPU      176.02
 TTTTTTTTTTTTTTTTTTTTTTTTTTTTTT MONMO3      TELAPSE      177.52 TCPU      177.18
 NUMERICALLY INTEGRATED DENSITY    159.9999801345
 TTTTTTTTTTTTTTTTTTTTTTTTTTTTTT NUMDFT      TELAPSE      181.40 TCPU      181.05
 CYC   3 ETOT(AU) -1.220771996499E+03 DETOT -8.67E-02 tst  2.24E-04 PX  4.08E-02
 TTTTTTTTTTTTTTTTTTTTTTTTTTTTTT DIIS        TELAPSE      181.43 TCPU      181.09
 DIIS TEST: 0.19148E-02 AT SCF   CYCLE   3 - DIIS ACTIVE - HISTORY:     3 CYCLES
 TTTTTTTTTTTTTTTTTTTTTTTTTTTTTT FDIK        TELAPSE      181.49 TCPU      181.13
 INSULATING STATE
 TOP OF VALENCE BANDS -    BAND     80; K    1; EIG -3.5826168E-01 AU
 BOTTOM OF VIRTUAL BANDS - BAND     81; K    1; EIG -2.1343673E-02 AU
 DIRECT ENERGY BAND GAP:   9.1680 eV
 TTTTTTTTTTTTTTTTTTTTTTTTTTTTTT PDIG        TELAPSE      181.50 TCPU      181.14
 CHARGE NORMALIZATION FACTOR   1.00000000
 TOTAL ATOMIC CHARGES:
   8.9320983   8.9398912   8.9383895   8.9378981   8.9304357   8.9316178
   8.9320496   8.9355781   8.9394853   8.9361158   8.9394490   8.9396629
   8.9364767   8.9298725   8.9309932   8.9358501   0.5277531   0.5486917
   0.5286479   0.5251848   0.5248117   0.5249789   0.5252471   0.5219898
   0.5477883   0.5274835   0.5466675   0.5283379   0.5468184   0.5277755
   0.5319378   0.5254168   0.5304894   0.5253875   0.5249526   0.5492073
   0.5292786   0.5206975   0.5294145   0.5240359   0.5239222   0.5479983
   0.5470383   0.5301958   0.5477414   0.5318036   0.5318906   0.5305520
 TTTTTTTTTTTTTTTTTTTTTTTTTTTTTT MOQGAD      TELAPSE      181.51 TCPU      181.15
 TTTTTTTTTTTTTTTTTTTTTTTTTTTTTT SHELLXN     TELAPSE      218.00 TCPU      217.55
 TTTTTTTTTTTTTTTTTTTTTTTTTTTTTT MONMO3      TELAPSE      219.08 TCPU      218.62
 NUMERICALLY INTEGRATED DENSITY    159.9999801541
 TTTTTTTTTTTTTTTTTTTTTTTTTTTTTT NUMDFT      TELAPSE      223.03 TCPU      222.57
 CYC   4 ETOT(AU) -1.220772213827E+03 DETOT -2.17E-04 tst  5.37E-07 PX  1.50E-03
 TTTTTTTTTTTTTTTTTTTTTTTTTTTTTT DIIS        TELAPSE      223.06 TCPU      222.60
 DIIS TEST: 0.79650E-04 AT SCF   CYCLE   4 - DIIS ACTIVE - HISTORY:     4 CYCLES
 TTTTTTTTTTTTTTTTTTTTTTTTTTTTTT FDIK        TELAPSE      223.13 TCPU      222.66
 INSULATING STATE
 TOP OF VALENCE BANDS -    BAND     80; K    1; EIG -3.5830874E-01 AU
 BOTTOM OF VIRTUAL BANDS - BAND     81; K    1; EIG -2.1166022E-02 AU
 DIRECT ENERGY BAND GAP:   9.1741 eV
 TTTTTTTTTTTTTTTTTTTTTTTTTTTTTT PDIG        TELAPSE      223.14 TCPU      222.68
 CHARGE NORMALIZATION FACTOR   1.00000000
 TOTAL ATOMIC CHARGES:
   8.9322149   8.9396810   8.9383407   8.9389051   8.9302582   8.9317726
   8.9326982   8.9363174   8.9399531   8.9360404   8.9395476   8.9395634
   8.9362629   8.9309941   8.9305393   8.9363397   0.5275659   0.5488062
   0.5285842   0.5249860   0.5247812   0.5248724   0.5249057   0.5214707
   0.5481000   0.5274499   0.5468608   0.5281583   0.5466940   0.5275417
   0.5316989   0.5251254   0.5302420   0.5250695   0.5246852   0.5494400
   0.5292264   0.5203847   0.5293770   0.5238852   0.5237281   0.5483169
   0.5469034   0.5298467   0.5480045   0.5317692   0.5317106   0.5303808
 TTTTTTTTTTTTTTTTTTTTTTTTTTTTTT MOQGAD      TELAPSE      223.15 TCPU      222.69
 TTTTTTTTTTTTTTTTTTTTTTTTTTTTTT SHELLXN     TELAPSE      259.82 TCPU      259.25
 TTTTTTTTTTTTTTTTTTTTTTTTTTTTTT MONMO3      TELAPSE      260.93 TCPU      260.37
 NUMERICALLY INTEGRATED DENSITY    159.9999801545
 TTTTTTTTTTTTTTTTTTTTTTTTTTTTTT NUMDFT      TELAPSE      265.09 TCPU      264.53
 CYC   5 ETOT(AU) -1.220772221840E+03 DETOT -8.01E-06 tst  2.20E-08 PX  6.42E-04
 TTTTTTTTTTTTTTTTTTTTTTTTTTTTTT DIIS        TELAPSE      265.13 TCPU      264.56
 DIIS TEST: 0.53967E-05 AT SCF   CYCLE   5 - DIIS ACTIVE - HISTORY:     5 CYCLES
 TTTTTTTTTTTTTTTTTTTTTTTTTTTTTT FDIK        TELAPSE      265.18 TCPU      264.60
 INSULATING STATE
 TOP OF VALENCE BANDS -    BAND     80; K    1; EIG -3.5830118E-01 AU
 BOTTOM OF VIRTUAL BANDS - BAND     81; K    1; EIG -2.1147648E-02 AU
 DIRECT ENERGY BAND GAP:   9.1744 eV
 TTTTTTTTTTTTTTTTTTTTTTTTTTTTTT PDIG        TELAPSE      265.20 TCPU      264.61
 CHARGE NORMALIZATION FACTOR   1.00000000
 TOTAL ATOMIC CHARGES:
   8.9322204   8.9401536   8.9385772   8.9380170   8.9305958   8.9317327
   8.9321549   8.9356424   8.9396467   8.9363497   8.9396610   8.9399207
   8.9367113   8.9297979   8.9312480   8.9359382   0.5276628   0.5488206
   0.5284885   0.5249840   0.5246822   0.5247882   0.5251585   0.5218091
   0.5478720   0.5273909   0.5467649   0.5281837   0.5469112   0.5277106
   0.5318635   0.5253079   0.5303824   0.5251968   0.5247341   0.5493304
   0.5291652   0.5204635   0.5293019   0.5238177   0.5236854   0.5481095
   0.5471477   0.5301496   0.5477974   0.5317056   0.5318032   0.5304435
 TTTTTTTTTTTTTTTTTTTTTTTTTTTTTT MOQGAD      TELAPSE      265.20 TCPU      264.62
 TTTTTTTTTTTTTTTTTTTTTTTTTTTTTT SHELLXN     TELAPSE      301.85 TCPU      301.16
 TTTTTTTTTTTTTTTTTTTTTTTTTTTTTT MONMO3      TELAPSE      302.98 TCPU      302.29
 NUMERICALLY INTEGRATED DENSITY    159.9999801552
 TTTTTTTTTTTTTTTTTTTTTTTTTTTTTT NUMDFT      TELAPSE      306.89 TCPU      306.19
 CYC   6 ETOT(AU) -1.220772221727E+03 DETOT  1.13E-07 tst  4.17E-09 PX  4.98E-04
 TTTTTTTTTTTTTTTTTTTTTTTTTTTTTT DIIS        TELAPSE      306.93 TCPU      306.23
 DIIS TEST: 0.49105E-05 AT SCF   CYCLE   6 - DIIS ACTIVE - HISTORY:     6 CYCLES
 TTTTTTTTTTTTTTTTTTTTTTTTTTTTTT FDIK        TELAPSE      306.99 TCPU      306.28
 INSULATING STATE
 TOP OF VALENCE BANDS -    BAND     80; K    1; EIG -3.5829034E-01 AU
 BOTTOM OF VIRTUAL BANDS - BAND     81; K    1; EIG -2.1145958E-02 AU
 DIRECT ENERGY BAND GAP:   9.1742 eV
 TTTTTTTTTTTTTTTTTTTTTTTTTTTTTT PDIG        TELAPSE      307.00 TCPU      306.29
 CHARGE NORMALIZATION FACTOR   1.00000000
 TOTAL ATOMIC CHARGES:
   8.9321687   8.9398492   8.9384110   8.9384234   8.9303904   8.9317335
   8.9323862   8.9359753   8.9397727   8.9361117   8.9395527   8.9396514
   8.9364026   8.9304391   8.9307931   8.9361242   0.5276377   0.5488168
   0.5285683   0.5250156   0.5247620   0.5248689   0.5250538   0.5216745
   0.5479880   0.5274455   0.5468106   0.5282032   0.5468013   0.5276505
   0.5317997   0.5252381   0.5303324   0.5251617   0.5247578   0.5493883
   0.5292164   0.5204634   0.5293716   0.5238911   0.5237551   0.5482203
   0.5470112   0.5300113   0.5479146   0.5317686   0.5317822   0.5304340
 TTTTTTTTTTTTTTTTTTTTTTTTTTTTTT MOQGAD      TELAPSE      307.00 TCPU      306.30
 TTTTTTTTTTTTTTTTTTTTTTTTTTTTTT SHELLXN     TELAPSE      343.64 TCPU      342.86
 +++ ENERGIES IN A.U. +++
 ::: EXT EL-POLE                                  -1.3254930503836E+03
 ::: EXT EL-SPHEROPOLE                             1.5662994592505E+01
 ::: BIELET ZONE E-E                               1.6411100225334E+03
 ::: TOTAL E-E                                     3.3127996674229E+02
 ::: TOTAL E-N + N-E                              -2.4313984667416E+03
 ::: TOTAL N-N                                    -2.4208793055111E+02
 ::: KINETIC ENERGY                                1.2130020577520E+03
 ::: PSEUDO TOTAL   ENERGY                        -1.1292043727984E+03
 ::: VIRIAL COEFFICIENT                            1.0357772414338E+00
 TTTTTTTTTTTTTTTTTTTTTTTTTTTTTT MONMO3      TELAPSE      344.82 TCPU      344.04
 NUMERICALLY INTEGRATED DENSITY    159.9999801553
 TTTTTTTTTTTTTTTTTTTTTTTTTTTTTT NUMDFT      TELAPSE      348.73 TCPU      347.94
 CYC   7 ETOT(AU) -1.220772222794E+03 DETOT -1.07E-06 tst  1.20E-09 PX  4.98E-04

 == SCF ENDED - CONVERGENCE ON ENERGY      E(AU) -1.2207722227938E+03 CYCLES   7


 ENERGY EXPRESSION=HARTREE+FOCK EXCH*0.00000+(HSE-3c     EXCH)*1.00000+PBEh-3c    CORR


 TOTAL ENERGY(DFT)(AU)(  7) -1.2207722227938E+03 DE-1.1E-06 tester 1.2E-09
 TTTTTTTTTTTTTTTTTTTTTTTTTTTTTT EDFT        TELAPSE      348.74 TCPU      347.94
 
 INFORMATION **** DFTD3 ENERGY **** CALCULATE DFTD3 ENERGY

           DFT-D V3(BJ)
 DF                                         hse3c     
 parameters
 s6       :    1.0000
 s8       :    0.0000
 a1       :    0.4411
 a2       :    4.5182
 k1 k3    :   16.0000   -4.0000
 Cutoff   :   50.2022
 CN-Cutoff:   21.1671
 
 Edisp /kcal,au:   -31.0141 -0.04942410

 E6    /kcal :   -33.4225
 E8    /kcal :     0.0000
 E6(ABC) "   :   2.408380
 
 INFORMATION **** DFTD3 ENERGY **** NORMAL TERMINATION OF DFTD3 MODULE

 GCP ENERGY CALCULATION
  level           hse3c               basis:hse3c
  Nbf            304
  Atoms           48

  Parameters: 
  sigma     1.0000
  eta       1.4086
  alpha     0.2908
  beta      1.9526

  dmp_scal      4.0000
  dmp_exp       6.0000
 cutoffs: 
   distance [bohr] 60.0
   noise    [a.u.] 2.2E-16
 SR-damping   T
 ** gCP correction **
  Egcp:        0.2130297000 / (a.u.) ||     133.6782 / (kcal/mol)
 INFORMATION **** GCP **** NORMAL TERMINATION OF GCP MODULE

 *******************************************************************************

 DFT-D3-GCP DISPERSION AND COUNTERPOISE CORRECTION

 D3 DISPERSION ENERGY (AU)      -4.9424103748152E-02
 GCP ENERGY (AU)                 2.1302969999414E-01
 TOTAL ENERGY + DISP + GCP (AU) -1.2206086171975E+03

 *******************************************************************************

 EIGENVECTORS IN FORTRAN UNIT 10
 TTTTTTTTTTTTTTTTTTTTTTTTTTTTTT END         TELAPSE      350.40 TCPU      349.58
 EEEEEEEEEE TERMINATION  DATE 25 03 2019 TIME 17:58:30.9
NODE    0 CPU TIME =       349.582
NODE    1 CPU TIME =       349.301
NODE    2 CPU TIME =       349.453
NODE    3 CPU TIME =       349.475
NODE    4 CPU TIME =       349.513
NODE    5 CPU TIME =       349.402
NODE    6 CPU TIME =       349.390
NODE    7 CPU TIME =       349.410
    TOTAL CPU TIME =      2795.524
