 PROCESS            6  OF            8  WORKING
 PROCESS            0  OF            8  WORKING
 PROCESS            4  OF            8  WORKING
 PROCESS            2  OF            8  WORKING
 PROCESS            5  OF            8  WORKING
 PROCESS            7  OF            8  WORKING
 PROCESS            1  OF            8  WORKING
 PROCESS            3  OF            8  WORKING

         
 *******************************************************************************
 *                                                                             *
 *                               CRYSTAL17                                     *
 *                      public : 1.0.1 - Feb 1st, 2017                         *
 *                       HTTP://WWW.CRYSTAL.UNITO.IT                           *
 *                                                                             *
 *                              MAIN AUTHORS                                   *
 *                                                                             *
 *  R. DOVESI(1,11), V.R. SAUNDERS(2), C. ROETTI(1,11), R. ORLANDO(1,11),      *
 *  C.M. ZICOVICH-WILSON(1,3), F. PASCALE(4), B. CIVALLERI(1,11),              *
 *  K. DOLL(5), N.M. HARRISON(2,6), I.J. BUSH(7), Ph. D'ARCO(8),               *
 *  M. LLUNELL(9), M. CAUSA'(10), Y. NOEL(8), L. MASCHIO(1,11), A. ERBA(1,11)  *
 *  M. RE'RAT(14), S. CASASSA(1,11)                                            *
 *                                                                             *
 *        CONTRIBUTIONS TO THE CODE HAVE ALSO BEEN GIVEN BY                    *
 *                                                                             *
 *  M. FERRABONE(1,11), M. DE LA PIERRE(1,11), M. FERRERO(1,11),               *
 *  J. BAIMA(1,11), E. ALBANESE(1,11), M.F. PEINTINGER(12), R. BAST(13),       *
 *  B. KIRTMAN(15), V. LACIVITA(1,11), R. DEMICHELIS(1,16)                     *
 *  G. BRANDEBURG(17), S. SALUSTRO(1,11), G. SANSONE(1,11)                     *
 *  M.T. RUGGIERO(18)                                                          *
 *                                                                             *
 * (1) THEORETICAL CHEMISTRY GROUP - UNIVERSITA' DI TORINO - TORINO (ITALY)    *

 * (2) COMPUTATIONAL SCIENCE & ENGINEERING DEPARTMENT - STFC DARESBURY (UK)    *
 * (3) UNIVERSIDAD AUTONOMA DEL ESTADO DE MORELOS - CUERNAVACA (MEXICO)        *
 * (4) UNIVERSITE' DE LORRAINE - NANCY (FRANCE)                                *
 * (5) UNIVERSITAET STUTTGART- STUTTGART (GERMANY)                             *
 * (6) IMPERIAL COLLEGE - LONDON (UK)                                          *
 * (7) OXFORD E-RESEARCH CENTRE - OXFORD (UK)                                  *
 * (8) UPMC - SORBONNE UNIVERSITES - PARIS (FRANCE)                            *
 * (9) UNIVERSIDAD DE BARCELONA - BARCELONA (SPAIN)                            *
 *(10) UNIVERSITA' DI NAPOLI "FEDERICO II" - NAPOLI (ITALY)                    *
 *(11) NIS - NANOSTRUCTURED INTERFACES AND SURFACES - TORINO (ITALY)           *
 *(12) MPI FUER CHEMISCHE ENERGIEKONVERSION - MUELHEIM AN DER RUHR (GERMANY)   *
 *(13) UNIVERSITY OF TROMSO - TROMSO (NORWAY)                                  *
 *(14) UNIVERSITE' DE PAU ET DES PAYS DE L'ADOUR - PAU (FRANCE)                *
 *(15) UNIVERSITY OF CALIFORNIA SANTA BARBARA - SANTA BARBARA (USA)            *
 *(16) CURTIN UNIVERSITY - PERTH (AUSTRALIA)                                   *
 *(17) UNIVERSITY COLLEGE LONDON - LONDON (UK)                                 *
 *(18) CAMBRIDGE UNIVERSITY - CAMBRIDGE (UK)                                   *
 *                                                                             *
 *******************************************************************************
 EEEEEEEEEE STARTING  DATE 25 03 2019 TIME 17:47:27.3
 !drive by JGB                                                                   

 CRYSTAL CALCULATION
 (INPUT ACCORDING TO THE INTERNATIONAL TABLES FOR X-RAY CRYSTALLOGRAPHY)
 CRYSTAL FAMILY                       :  HEXAGONAL   
 CRYSTAL CLASS  (GROTH - 1921)        :  HEXAGONAL TRAPEZOHEDRAL              

 SPACE GROUP (NONCENTROSYMMETRIC)     :  P 65 2 2        

 LATTICE PARAMETERS  (ANGSTROMS AND DEGREES) - CONVENTIONAL CELL
        A           B           C        ALPHA        BETA       GAMMA
     4.32786     4.32786     9.46573    90.00000    90.00000   120.00000


 NUMBER OF IRREDUCIBLE ATOMS IN THE CONVENTIONAL CELL:    2

 INPUT COORDINATES

 ATOM AT. N.              COORDINATES
   1   8     5.207644544334E-01  4.792355455667E-01  8.333333333333E-02
   2   1     4.716631495463E-01  2.707261376814E-01  1.415969232617E-01

 *******************************************************************************

 << INFORMATION >>: FROM NOW ON, ALL COORDINATES REFER TO THE PRIMITIVE CELL

 *******************************************************************************

 LATTICE PARAMETERS  (ANGSTROMS AND DEGREES) - PRIMITIVE CELL
       A          B          C        ALPHA      BETA     GAMMA        VOLUME
    4.32786    4.32786    9.46573    90.00000  90.00000 120.00000    153.543714

 COORDINATES OF THE EQUIVALENT ATOMS (FRACTIONAL UNITS)

 N. ATOM EQUIV AT. N.          X                  Y                  Z

   1   1   1    8 O    -4.79235545567E-01  4.79235545567E-01  8.33333333333E-02
   2   1   2    8 O     4.79235545567E-01 -4.79235545567E-01 -4.16666666667E-01
   3   1   3    8 O    -4.79235545567E-01  4.15289088667E-02 -2.50000000000E-01
   4   1   4    8 O    -4.15289088667E-02  4.79235545567E-01  4.16666666667E-01
   5   1   5    8 O     4.15289088667E-02 -4.79235545567E-01 -8.33333333333E-02
   6   1   6    8 O     4.79235545567E-01 -4.15289088667E-02  2.50000000000E-01

   7   2   1    1 H     4.71663149546E-01  2.70726137681E-01  1.41596923262E-01
   8   2   2    1 H    -4.71663149546E-01 -2.70726137681E-01 -3.58403076738E-01
   9   2   3    1 H    -2.70726137681E-01  2.00937011865E-01 -1.91736410072E-01
  10   2   4    1 H    -2.00937011865E-01 -4.71663149546E-01  4.74930256595E-01
  11   2   5    1 H     2.00937011865E-01  4.71663149546E-01 -2.50697434050E-02
  12   2   6    1 H     2.70726137681E-01 -2.00937011865E-01  3.08263589928E-01
  13   2   7    1 H     2.00937011865E-01 -2.70726137681E-01 -1.41596923262E-01
  14   2   8    1 H    -4.71663149546E-01 -2.00937011865E-01  1.91736410072E-01
  15   2   9    1 H     2.70726137681E-01  4.71663149546E-01 -4.74930256595E-01
  16   2  10    1 H    -2.70726137681E-01 -4.71663149546E-01  2.50697434050E-02
  17   2  11    1 H     4.71663149546E-01  2.00937011865E-01 -3.08263589928E-01
  18   2  12    1 H    -2.00937011865E-01  2.70726137681E-01  3.58403076738E-01

 NUMBER OF SYMMETRY OPERATORS         :   12
 *******************************************************************************
 * GEOMETRY EDITING - INPUT COORDINATES ARE GIVEN IN ANGSTROM         
 *******************************************************************************

 GEOMETRY NOW FULLY CONSISTENT WITH THE GROUP

 GCALCO - MAX INDICES DIRECT LATTICE VECTOR    20    20     7
 NO.OF VECTORS CREATED 6999 STARS  366 RMAX   119.97915 BOHR

 GEOMETRY FOR WAVE FUNCTION - DIMENSIONALITY OF THE SYSTEM    3
 (NON PERIODIC DIRECTION: LATTICE PARAMETER FORMALLY SET TO 500)
 *******************************************************************************
 LATTICE PARAMETERS (ANGSTROMS AND DEGREES) - BOHR = 0.5291772083 ANGSTROM
 PRIMITIVE CELL - CENTRING CODE 1/0 VOLUME=   153.543714 - DENSITY  1.169 g/cm^3
         A              B              C           ALPHA      BETA       GAMMA 
     4.32786425     4.32786425     9.46573079    90.000000  90.000000 120.000000
 *******************************************************************************
 ATOMS IN THE ASYMMETRIC UNIT    2 - ATOMS IN THE UNIT CELL:   18
     ATOM                 X/A                 Y/B                 Z/C    
 *******************************************************************************
      1 T   8 O    -4.792355455666E-01  4.792355455667E-01  8.333333333333E-02
      2 F   8 O     4.792355455666E-01 -4.792355455666E-01 -4.166666666667E-01
      3 F   8 O    -4.792355455666E-01  4.152890886670E-02 -2.500000000000E-01
      4 F   8 O    -4.152890886670E-02  4.792355455667E-01  4.166666666667E-01
      5 F   8 O     4.152890886670E-02 -4.792355455667E-01 -8.333333333333E-02
      6 F   8 O     4.792355455666E-01 -4.152890886670E-02  2.500000000000E-01
      7 T   1 H     4.716631495463E-01  2.707261376814E-01  1.415969232617E-01
      8 F   1 H    -4.716631495463E-01 -2.707261376814E-01 -3.584030767383E-01
      9 F   1 H    -2.707261376814E-01  2.009370118649E-01 -1.917364100716E-01
     10 F   1 H    -2.009370118649E-01 -4.716631495463E-01  4.749302565950E-01
     11 F   1 H     2.009370118649E-01  4.716631495463E-01 -2.506974340497E-02
     12 F   1 H     2.707261376814E-01 -2.009370118649E-01  3.082635899284E-01
     13 F   1 H     2.009370118649E-01 -2.707261376814E-01 -1.415969232617E-01
     14 F   1 H    -4.716631495463E-01 -2.009370118649E-01  1.917364100716E-01
     15 F   1 H     2.707261376814E-01  4.716631495463E-01 -4.749302565950E-01
     16 F   1 H    -2.707261376814E-01 -4.716631495463E-01  2.506974340497E-02
     17 F   1 H     4.716631495463E-01  2.009370118649E-01 -3.082635899284E-01
     18 F   1 H    -2.009370118649E-01  2.707261376814E-01  3.584030767383E-01

 T = ATOM BELONGING TO THE ASYMMETRIC UNIT

 ****   12 SYMMOPS - TRANSLATORS IN FRACTIONAL UNITS
 **** MATRICES AND TRANSLATORS IN THE CRYSTALLOGRAPHIC REFERENCE FRAME
   V INV                    ROTATION MATRICES                   TRANSLATORS
   1   1  1.00  0.00  0.00  0.00  1.00  0.00  0.00  0.00  1.00  0.00  0.00  0.00
   2   2 -1.00  0.00  0.00  0.00 -1.00  0.00  0.00  0.00  1.00  0.00  0.00  0.50
   3   4 -0.00 -1.00  0.00  1.00 -1.00  0.00  0.00  0.00  1.00  0.00  0.00  0.67
   4   3 -1.00  1.00  0.00 -1.00 -0.00  0.00  0.00  0.00  1.00  0.00  0.00  0.33
   5   6  1.00 -1.00  0.00  1.00  0.00  0.00  0.00  0.00  1.00  0.00  0.00  0.83
   6   5  0.00  1.00  0.00 -1.00  1.00  0.00  0.00  0.00  1.00  0.00  0.00  0.17
   7   7  1.00 -1.00  0.00 -0.00 -1.00  0.00  0.00  0.00 -1.00  0.00  0.00  0.00
   8   8 -1.00  0.00  0.00 -1.00  1.00  0.00  0.00  0.00 -1.00  0.00  0.00  0.33
   9   9  0.00  1.00  0.00  1.00 -0.00  0.00  0.00  0.00 -1.00  0.00  0.00  0.67
  10  10 -0.00 -1.00  0.00 -1.00  0.00  0.00  0.00  0.00 -1.00  0.00  0.00  0.17
  11  11  1.00  0.00  0.00  1.00 -1.00  0.00  0.00  0.00 -1.00  0.00  0.00  0.83
  12  12 -1.00  1.00  0.00  0.00  1.00  0.00  0.00  0.00 -1.00  0.00  0.00  0.50

 DIRECT LATTICE VECTORS CARTESIAN COMPONENTS (ANGSTROM)
          X                    Y                    Z
   0.374804038463E+01  -0.216393212500E+01   0.000000000000E+00
   0.000000000000E+00   0.432786425000E+01   0.000000000000E+00
   0.000000000000E+00   0.000000000000E+00   0.946573079000E+01


 CARTESIAN COORDINATES - PRIMITIVE CELL
 *******************************************************************************
 *      ATOM          X(ANGSTROM)         Y(ANGSTROM)         Z(ANGSTROM)
 *******************************************************************************
    1     8 O    -1.796194178534E+00 -1.216764672519E+00  7.888108991667E-01
    2     8 O    -1.951846206096E+00 -9.471674524807E-01 -3.944054495833E+00
    3     8 O    -1.796194178534E+00  1.216764672519E+00 -2.366432697500E+00
    4     8 O    -1.556520275620E-01 -2.163932125000E+00  3.944054495833E+00
    5     8 O     1.556520275620E-01 -2.163932125000E+00 -7.888108991667E-01
    6     8 O    -1.951846206096E+00  9.471674524807E-01  2.366432697500E+00
    7     1 H     1.767812532442E+00  1.510189313300E-01  1.340318356288E+00
    8     1 H    -1.767812532442E+00 -1.510189313300E-01 -3.392547038712E+00
    9     1 H    -1.014692497205E+00  1.455461096558E+00 -1.814925240379E+00
   10     1 H    -7.531200352366E-01 -1.606480027888E+00  4.495561952954E+00
   11     1 H     7.531200352366E-01  1.606480027888E+00 -2.373034420458E-01
   12     1 H     1.014692497205E+00 -1.455461096558E+00  2.917940154621E+00
   13     1 H     7.531200352366E-01 -1.606480027888E+00 -1.340318356288E+00
   14     1 H    -1.767812532442E+00  1.510189313300E-01  1.814925240379E+00
   15     1 H     1.014692497205E+00  1.455461096558E+00 -4.495561952954E+00
   16     1 H    -1.014692497205E+00 -1.455461096558E+00  2.373034420458E-01
   17     1 H     1.767812532442E+00 -1.510189313300E-01 -2.917940154621E+00
   18     1 H    -7.531200352366E-01  1.606480027888E+00  3.392547038712E+00

 *******************************************************************************
 STARTING BASIS SET HANDLING 
 *******************************************************************************

 Loading internal basis set: DEF2-MSVP           

 Please cite in your publication:
 Fully Optimized Contracted Gaussian Basis Sets for Atoms Li to Kr. A. Schäfer, 
 H. Horn and R. Ahlrichs; J. Chem. Phys. 97, 2571 (1992).                       
                                                                                
                    
 S. Grimme, J. G. Brandenburg, C. Bannwarth, and A. Hansen, J. Chem. Phys., 143,
  054107 (2015).                                                                
                                                                                
                    

 *******************************************************************************
 LOCAL ATOMIC FUNCTIONS BASIS SET
 *******************************************************************************
   ATOM   X(AU)   Y(AU)   Z(AU)  N. TYPE  EXPONENT  S COEF   P COEF   D/F/G COEF
 *******************************************************************************
   1 O   -3.394  -2.299   1.491
                                  1 S  
                                         6.773E+03 1.727E-03 0.000E+00 0.000E+00
                                         1.017E+03 1.325E-02 0.000E+00 0.000E+00
                                         2.313E+02 6.603E-02 0.000E+00 0.000E+00
                                         6.501E+01 2.353E-01 0.000E+00 0.000E+00
                                         2.050E+01 5.498E-01 0.000E+00 0.000E+00
                                  2 S  
                                         6.716E+00 1.000E+00 0.000E+00 0.000E+00
                                  3 S  
                                         1.147E+00 1.000E+00 0.000E+00 0.000E+00
                                  4 S  
                                         3.342E-01 1.000E+00 0.000E+00 0.000E+00
                           5-     7 P  
                                         1.769E+01 0.000E+00 4.359E-02 0.000E+00
                                         3.854E+00 0.000E+00 2.318E-01 0.000E+00
                                         1.047E+00 0.000E+00 5.146E-01 0.000E+00
                           8-    10 P  
                                         2.759E-01 0.000E+00 1.000E+00 0.000E+00
                          11-    15 D  
                                         8.000E-01 0.000E+00 0.000E+00 1.000E+00
   2 O   -3.688  -1.790  -7.453
   3 O   -3.394   2.299  -4.472
   4 O   -0.294  -4.089   7.453
   5 O    0.294  -4.089  -1.491
   6 O   -3.688   1.790   4.472
   7 H    3.341   0.285   2.533
                                 91 S  
                                         1.874E+01 1.968E-02 0.000E+00 0.000E+00
                                         2.826E+00 1.380E-01 0.000E+00 0.000E+00
                                         6.401E-01 4.783E-01 0.000E+00 0.000E+00
                                 92 S  
                                         1.756E-01 1.000E+00 0.000E+00 0.000E+00
   8 H   -3.341  -0.285  -6.411
   9 H   -1.917   2.750  -3.430
  10 H   -1.423  -3.036   8.495
  11 H    1.423   3.036  -0.448
  12 H    1.917  -2.750   5.514
  13 H    1.423  -3.036  -2.533
  14 H   -3.341   0.285   3.430
  15 H    1.917   2.750  -8.495
  16 H   -1.917  -2.750   0.448
  17 H    3.341  -0.285  -5.514
  18 H   -1.423   3.036   6.411

 *******************************************************************************
 FINISHED BASIS SET HANDLING 
 *******************************************************************************

 INFORMATION **** SET_MPP **** PCRYSTAL CALCULATION
 INFORMATION **** READM2 **** NEW DEFAULT: FOCK/KS MATRIX MIXING SET TO 30 %
 INFORMATION **** READM2 **** NEW DEFAULT: FULL DIRECT SCF MODE
 INFORMATION **** READM2 **** NEW DEFAULT: COULOMB BIPOLAR BUFFER SET TO 32 Mb
 INFORMATION **** READM2 **** NEW DEFAULT: EXCHANGE BIPOLAR BUFFER SET TO 32 Mb

 *******************************************************************************
 NEW DEFAULT: DFT INTEGRATION GRID INCREASED TO XLGRID
 NEW DEFAULT: DIIS ACCELERATOR ACTIVE
 USE KEYWORD NODIIS TO TURN IT OFF
 *******************************************************************************

 INFORMATION **** RDDFTP **** HSE-3c calculation
 INFORMATION **** RDDFTP **** HSE screened hybrid functional combined with D3 and gCP

PLEASE CITE:
(1) HSE-3c Reference
 J. G. Brandenburg, E. Caldeweyer, and S. Grimme, 
 Phys. Chem. Chem. Phys. 18, 15519 (2016)
(2) DFT-D3 Reference
 S. Grimme, J. Antony, S. Ehrlich,
 and H. Krieg, J. Chem. Phys. 132, 154104 (2010)
(3) gCP Reference
 H. Kruse and S. Grimme J. Chem. Phys, 136, 154101 (2012)
 J. G. Brandenburg, M. Alessio, B. Civalleri, M. F. Peintinger
 T. Bredow, and S. Grimme, J. Phys. Chem. A, 117, 9282 (2013) 

 WARNING **** RDDFTP **** HSE3c-HJS ACTIVE
 RANGE SEPARATION - OMEGA:   0.110000000000000     
 WARNING **** RDDFTP **** HSE-3c has to be combined with def2-mSVP basis set
 WARNING **** RDDFTP **** Note: Harmonic frequencies are scaled by 0.95
 WARNING **** RDDFTP **** as recommended in original publication
 INFORMATION **** BIPOSIZE **** COULOMB BIPOLAR BUFFER SET TO    60000000
 INFORMATION **** EXCHSIZE **** EXCHANGE BIPOLAR BUFFER SIZE SET TO    40000000
 *******************************************************************************
 N. OF ATOMS PER CELL        18  COULOMB OVERLAP TOL         (T1) 10**   -6
 NUMBER OF SHELLS            66  COULOMB PENETRATION TOL     (T2) 10**   -6
 NUMBER OF AO               114  EXCHANGE OVERLAP TOL        (T3) 10**   -6
 N. OF ELECTRONS PER CELL    60  EXCHANGE PSEUDO OVP (F(G))  (T4) 10**   -6
 CORE ELECTRONS PER CELL     12  EXCHANGE PSEUDO OVP (P(G))  (T5) 10**  -12
 N. OF SYMMETRY OPERATORS    12  POLE ORDER IN MONO ZONE                  4
 *******************************************************************************
 TYPE OF CALCULATION :  RESTRICTED CLOSED SHELL
 KOHN-SHAM HAMILTONIAN

 (EXCHANGE)[CORRELATION] FUNCTIONAL:(HSE-3c)[PBEh-3c]

 RANGE-SEPARATED HYBRID FUNCTIONAL 
 OMEGA (SHORT-RANGE)[LONG-RANGE]:(    0.1100)[    0.0000]

 HYBRID EXCHANGE - PERCENTAGE OF FOCK EXCHANGE    42.0000

 CAPPA:IS1  2;IS2  2;IS3  2; K PTS MONK NET   4; SYMMOPS:K SPACE  24;G SPACE  12

 *******************************************************************************
 MAX NUMBER OF SCF CYCLES      50  CONVERGENCE ON DELTAP        10**-16
 WEIGHT OF F(I) IN F(I+1)      30% CONVERGENCE ON ENERGY        10**- 6
 S(K) EIGENV. THRESHOLD  10*10.**-4
 SHRINK. FACT.(MONKH.)    2  2  2  NUMBER OF K POINTS IN THE IBZ      4
 SHRINKING FACTOR(GILAT NET)    2  NUMBER OF K POINTS(GILAT NET)      4
 *******************************************************************************
 *** K POINTS COORDINATES (OBLIQUE COORDINATES IN UNITS OF IS =  2)
   1-R(  0  0  0)   2-R(  1  0  0)   3-R(  0  0  1)   4-R(  1  0  1)

 DIRECT LATTICE VECTORS COMPON. (A.U.)     RECIP. LATTICE VECTORS COMPON. (A.U.) 
        X            Y            Z              X            Y            Z
    7.0827699   -4.0892391    0.0000000      0.8871085    0.0000000    0.0000000
    0.0000000    8.1784782    0.0000000      0.4435542    0.7682585    0.0000000
    0.0000000    0.0000000   17.8876389      0.0000000    0.0000000    0.3512585

 DISK SPACE FOR EIGENVECTORS (FTN 10)       51984 REALS

 SYMMETRY ADAPTION OF THE BLOCH FUNCTIONS ENABLED
 TTTTTTTTTTTTTTTTTTTTTTTTTTTTTT gordsh1     TELAPSE        0.31 TCPU        0.04

 MATRIX SIZE: P(G)   67434, F(G)   11862, P(G) IRR    3290, F(G) IRR    1183
 MAX G-VECTOR INDEX FOR 1- AND 2-ELECTRON INTEGRALS  99

 TTTTTTTTTTTTTTTTTTTTTTTTTTTTTT INPUT       TELAPSE        0.31 TCPU        0.05

 NEIGHBORS OF THE NON-EQUIVALENT ATOMS

 N = NUMBER OF NEIGHBORS AT DISTANCE R
    ATOM  N     R/ANG      R/AU   NEIGHBORS (ATOM LABELS AND CELL INDICES)
   1 O    2     0.9858     1.8630    7 H   -1-1 0   16 H    0 0 0
   1 O    2     1.7101     3.2317   11 H   -1-1 0   14 H    0 0 0
   1 O    4     2.6825     5.0692    5 O   -1 0 0    5 O    0 0 0    6 O    0-1 0
                                     6 O    0 0 0
   1 O    2     3.0196     5.7062   12 H   -1 0 0   13 H   -1 0 0
   1 O    2     3.1330     5.9205   11 H    0-1 0   14 H    0-1 0
   1 O    2     3.1830     6.0149    9 H    0-1 0   18 H    0-1 0

   7 H    1     0.9858     1.8630    1 O    1 1 0
   7 H    1     1.5683     2.9637   16 H    1 1 0
   7 H    1     1.7101     3.2317    6 O    1 0 0
   7 H    2     2.2255     4.2056   14 H    1 1 0   14 H    1 0 0
   7 H    2     2.3742     4.4866   11 H    0 0 0   12 H    0 0 0
   7 H    1     2.4939     4.7127   18 H    1 0 0


 SYMMETRY ALLOWED INTERNAL DEGREE(S) OF FREEDOM:   4
 TTTTTTTTTTTTTTTTTTTTTTTTTTTTTT SYMM        TELAPSE        0.53 TCPU        0.09
 TTTTTTTTTTTTTTTTTTTTTTTTTTTTTT INT_SCREEN  TELAPSE        0.53 TCPU        0.10

 DFT PARAMETERS

     ATOM       ELECTRONS   NET CHARGE   R(ANGSTROM)
   1   8  O       8.0000      0.0000     0.74000000
   7   1  H       1.0000      0.0000     1.11000000

 SIZE OF GRID=      45728
 TTTTTTTTTTTTTTTTTTTTTTTTTTTTTT MAKE_GRID2  TELAPSE        2.84 TCPU        2.40
 BECKE WEIGHT FUNCTION
 RADSAFE =     2.00
 TOLERANCES - DENSITY:10**- 6; POTENTIAL:10**- 9; GRID WGT:10**-14

 RADIAL INTEGRATION  - INTERVALS (POINTS,UPPER LIMIT):            1( 75,  4.0*R)

 ANGULAR INTEGRATION - INTERVALS (ACCURACY LEVEL [N. POINTS] UPPER LIMIT):
  1(  4[  86]   0.2)  2(  8[ 194]   0.5)  3( 12[ 350]   0.9)  4( 16[ 974]   3.5)
  5( 12[ 350]9999.0)
 TTTTTTTTTTTTTTTTTTTTTTTTTTTTTT INT_CALC    TELAPSE        2.86 TCPU        2.42
 EEEEEEEEEE INT_CALC TERMINATION  DATE 25 03 2019 TIME 17:47:30.0

 *******************************************************************************
 !drive by JGB                                                                   
 CRYSTAL - SCF - TYPE OF CALCULATION :  RESTRICTED CLOSED SHELL
 *******************************************************************************

 CAPPA:IS1  2;IS2  2;IS3  2; K PTS MONK NET   4; SYMMOPS:K SPACE  24;G SPACE  12

 TTTTTTTTTTTTTTTTTTTTTTTTTTTTTT SDIK        TELAPSE        2.89 TCPU        2.43

 AAAAAAAAAAAAAAAAAAAAAAAAAAAAAAAAAAAAAAAAAAAAAAAAAAAAAAAAAAAAAAAAAAAAAAAAAAAAAAA
         ATOMIC WAVEFUNCTION(S)


 NUCLEAR CHARGE  8.0  SYMMETRY SPECIES            S    P
 N. ELECTRONS    8.0  NUMBER OF PRIMITIVE GTOS    8    4
                      NUMBER OF CONTRACTED GTOS   4    2
                      NUMBER OF CLOSED SHELLS     2    0
                      OPEN SHELL OCCUPATION       0    4

  ZNUC SCFIT  TOTAL HF ENERGY   KINETIC ENERGY   VIRIAL THEOREM ACCURACY
   8.0  12   -7.477373220E+01  7.477365593E+01 -2.000001020E+00  3.8E-06

 NUCLEAR CHARGE  1.0  SYMMETRY SPECIES            S
 N. ELECTRONS    1.0  NUMBER OF PRIMITIVE GTOS    4
                      NUMBER OF CONTRACTED GTOS   2
                      NUMBER OF CLOSED SHELLS     0
                      OPEN SHELL OCCUPATION       1

  ZNUC SCFIT  TOTAL HF ENERGY   KINETIC ENERGY   VIRIAL THEOREM ACCURACY
   1.0   1   -4.977266687E-01  5.190767460E-01 -1.958869132E+00  1.8E-16

 AAAAAAAAAAAAAAAAAAAAAAAAAAAAAAAAAAAAAAAAAAAAAAAAAAAAAAAAAAAAAAAAAAAAAAAAAAAAAAA

 CHARGE NORMALIZATION FACTOR   1.00000000
 TOTAL ATOMIC CHARGES:
   8.0000000   8.0000000   8.0000000   8.0000000   8.0000000   8.0000000
   1.0000000   1.0000000   1.0000000   1.0000000   1.0000000   1.0000000
   1.0000000   1.0000000   1.0000000   1.0000000   1.0000000   1.0000000
 TTTTTTTTTTTTTTTTTTTTTTTTTTTTTT MOQGAD      TELAPSE        6.76 TCPU        6.30
 TTTTTTTTTTTTTTTTTTTTTTTTTTTTTT SHELLXN     TELAPSE        7.71 TCPU        7.22
 TTTTTTTTTTTTTTTTTTTTTTTTTTTTTT MONMO3      TELAPSE        7.83 TCPU        7.34
 NUMERICALLY INTEGRATED DENSITY     60.0000115544
 TTTTTTTTTTTTTTTTTTTTTTTTTTTTTT NUMDFT      TELAPSE        7.93 TCPU        7.44
 CYC   0 ETOT(AU) -4.579871342266E+02 DETOT -4.58E+02 tst  0.00E+00 PX  1.00E+00
 TTTTTTTTTTTTTTTTTTTTTTTTTTTTTT DIIS        TELAPSE        7.94 TCPU        7.45
 TTTTTTTTTTTTTTTTTTTTTTTTTTTTTT FDIK        TELAPSE        7.99 TCPU        7.47
 INSULATING STATE
 TOP OF VALENCE BANDS -    BAND     30; K    1; EIG -4.1757615E-01 AU
 BOTTOM OF VIRTUAL BANDS - BAND     31; K    1; EIG -7.7387143E-02 AU
 DIRECT ENERGY BAND GAP:   9.2570 eV
 TTTTTTTTTTTTTTTTTTTTTTTTTTTTTT PDIG        TELAPSE        8.00 TCPU        7.47
 CHARGE NORMALIZATION FACTOR   1.00000000
 TOTAL ATOMIC CHARGES:
   9.0766970   9.0766970   9.0766970   9.0766970   9.0766970   9.0766970
   0.4616515   0.4616515   0.4616515   0.4616515   0.4616515   0.4616515
   0.4616515   0.4616515   0.4616515   0.4616515   0.4616515   0.4616515
 TTTTTTTTTTTTTTTTTTTTTTTTTTTTTT MOQGAD      TELAPSE        8.00 TCPU        7.47
 TTTTTTTTTTTTTTTTTTTTTTTTTTTTTT SHELLXN     TELAPSE        8.94 TCPU        8.41
 TTTTTTTTTTTTTTTTTTTTTTTTTTTTTT MONMO3      TELAPSE        9.06 TCPU        8.53
 NUMERICALLY INTEGRATED DENSITY     60.0000158291
 TTTTTTTTTTTTTTTTTTTTTTTTTTTTTT NUMDFT      TELAPSE        9.28 TCPU        8.75
 CYC   1 ETOT(AU) -4.576361079912E+02 DETOT  3.51E-01 tst  0.00E+00 PX  1.00E+00
 TTTTTTTTTTTTTTTTTTTTTTTTTTTTTT DIIS        TELAPSE        9.30 TCPU        8.77
 DIIS TEST: 0.39036E+00 AT SCF   CYCLE   1 - MIX   30 %
 TTTTTTTTTTTTTTTTTTTTTTTTTTTTTT FDIK        TELAPSE        9.32 TCPU        8.79
 INSULATING STATE
 TOP OF VALENCE BANDS -    BAND     30; K    2; EIG -3.1980930E-01 AU
 TOP OF VALENCE BANDS -    BAND     30; K    1; EIG -3.2070252E-01 AU
 BOTTOM OF VIRTUAL BANDS - BAND     31; K    1; EIG -1.6570338E-02 AU
 INDIRECT ENERGY BAND GAP:   8.2516 eV
 TTTTTTTTTTTTTTTTTTTTTTTTTTTTTT PDIG        TELAPSE        9.32 TCPU        8.80
 CHARGE NORMALIZATION FACTOR   1.00000000
 TOTAL ATOMIC CHARGES:
   8.8721081   8.8721081   8.8721081   8.8721081   8.8721081   8.8721081
   0.5639460   0.5639460   0.5639460   0.5639460   0.5639460   0.5639460
   0.5639460   0.5639460   0.5639460   0.5639460   0.5639460   0.5639460
 TTTTTTTTTTTTTTTTTTTTTTTTTTTTTT MOQGAD      TELAPSE        9.33 TCPU        8.80
 TTTTTTTTTTTTTTTTTTTTTTTTTTTTTT SHELLXN     TELAPSE       10.27 TCPU        9.74
 TTTTTTTTTTTTTTTTTTTTTTTTTTTTTT MONMO3      TELAPSE       10.39 TCPU        9.86
 NUMERICALLY INTEGRATED DENSITY     60.0000175703
 TTTTTTTTTTTTTTTTTTTTTTTTTTTTTT NUMDFT      TELAPSE       10.61 TCPU       10.08
 CYC   2 ETOT(AU) -4.577579886893E+02 DETOT -1.22E-01 tst  3.03E-03 PX  1.16E-01
 TTTTTTTTTTTTTTTTTTTTTTTTTTTTTT DIIS        TELAPSE       10.68 TCPU       10.15
 DIIS TEST: 0.81755E-01 AT SCF   CYCLE   2 - DIIS ACTIVE - HISTORY:     2 CYCLES
 TTTTTTTTTTTTTTTTTTTTTTTTTTTTTT FDIK        TELAPSE       10.68 TCPU       10.15
 INSULATING STATE
 TOP OF VALENCE BANDS -    BAND     30; K    2; EIG -3.6324450E-01 AU
 TOP OF VALENCE BANDS -    BAND     30; K    1; EIG -3.6361049E-01 AU
 BOTTOM OF VIRTUAL BANDS - BAND     31; K    1; EIG -1.7969542E-02 AU
 INDIRECT ENERGY BAND GAP:   9.3954 eV
 TTTTTTTTTTTTTTTTTTTTTTTTTTTTTT PDIG        TELAPSE       10.68 TCPU       10.15
 CHARGE NORMALIZATION FACTOR   1.00000000
 TOTAL ATOMIC CHARGES:
   8.9422662   8.9422662   8.9422662   8.9422662   8.9422662   8.9422662
   0.5288669   0.5288669   0.5288669   0.5288669   0.5288669   0.5288669
   0.5288669   0.5288669   0.5288669   0.5288669   0.5288669   0.5288669
 TTTTTTTTTTTTTTTTTTTTTTTTTTTTTT MOQGAD      TELAPSE       10.69 TCPU       10.15
 TTTTTTTTTTTTTTTTTTTTTTTTTTTTTT SHELLXN     TELAPSE       11.63 TCPU       11.09
 TTTTTTTTTTTTTTTTTTTTTTTTTTTTTT MONMO3      TELAPSE       11.75 TCPU       11.21
 NUMERICALLY INTEGRATED DENSITY     60.0000170506
 TTTTTTTTTTTTTTTTTTTTTTTTTTTTTT NUMDFT      TELAPSE       11.96 TCPU       11.43
 CYC   3 ETOT(AU) -4.577899849088E+02 DETOT -3.20E-02 tst  2.84E-04 PX  3.72E-02
 TTTTTTTTTTTTTTTTTTTTTTTTTTTTTT DIIS        TELAPSE       11.97 TCPU       11.43
 DIIS TEST: 0.14711E-03 AT SCF   CYCLE   3 - DIIS ACTIVE - HISTORY:     3 CYCLES
 TTTTTTTTTTTTTTTTTTTTTTTTTTTTTT FDIK        TELAPSE       11.97 TCPU       11.43
 INSULATING STATE
 TOP OF VALENCE BANDS -    BAND     30; K    2; EIG -3.6151927E-01 AU
 TOP OF VALENCE BANDS -    BAND     30; K    1; EIG -3.6178579E-01 AU
 BOTTOM OF VIRTUAL BANDS - BAND     31; K    1; EIG -1.6021636E-02 AU
 INDIRECT ENERGY BAND GAP:   9.4015 eV
 TTTTTTTTTTTTTTTTTTTTTTTTTTTTTT PDIG        TELAPSE       11.97 TCPU       11.44
 CHARGE NORMALIZATION FACTOR   1.00000000
 TOTAL ATOMIC CHARGES:
   8.9404678   8.9404678   8.9404678   8.9404678   8.9404678   8.9404678
   0.5297661   0.5297661   0.5297661   0.5297661   0.5297661   0.5297661
   0.5297661   0.5297661   0.5297661   0.5297661   0.5297661   0.5297661
 TTTTTTTTTTTTTTTTTTTTTTTTTTTTTT MOQGAD      TELAPSE       11.98 TCPU       11.44
 TTTTTTTTTTTTTTTTTTTTTTTTTTTTTT SHELLXN     TELAPSE       12.92 TCPU       12.38
 TTTTTTTTTTTTTTTTTTTTTTTTTTTTTT MONMO3      TELAPSE       13.04 TCPU       12.50
 NUMERICALLY INTEGRATED DENSITY     60.0000170667
 TTTTTTTTTTTTTTTTTTTTTTTTTTTTTT NUMDFT      TELAPSE       13.25 TCPU       12.71
 CYC   4 ETOT(AU) -4.577900360096E+02 DETOT -5.11E-05 tst  1.13E-06 PX  1.00E-03
 TTTTTTTTTTTTTTTTTTTTTTTTTTTTTT DIIS        TELAPSE       13.25 TCPU       12.71
 DIIS TEST: 0.45976E-05 AT SCF   CYCLE   4 - DIIS ACTIVE - HISTORY:     4 CYCLES
 TTTTTTTTTTTTTTTTTTTTTTTTTTTTTT FDIK        TELAPSE       27.20 TCPU       12.71
 INSULATING STATE
 TOP OF VALENCE BANDS -    BAND     30; K    2; EIG -3.6142269E-01 AU
 TOP OF VALENCE BANDS -    BAND     30; K    1; EIG -3.6168610E-01 AU
 BOTTOM OF VIRTUAL BANDS - BAND     31; K    1; EIG -1.5829821E-02 AU
 INDIRECT ENERGY BAND GAP:   9.4041 eV
 TTTTTTTTTTTTTTTTTTTTTTTTTTTTTT PDIG        TELAPSE       27.20 TCPU       12.71
 CHARGE NORMALIZATION FACTOR   1.00000000
 TOTAL ATOMIC CHARGES:
   8.9404858   8.9404858   8.9404858   8.9404858   8.9404858   8.9404858
   0.5297571   0.5297571   0.5297571   0.5297571   0.5297571   0.5297571
   0.5297571   0.5297571   0.5297571   0.5297571   0.5297571   0.5297571
 TTTTTTTTTTTTTTTTTTTTTTTTTTTTTT MOQGAD      TELAPSE       27.20 TCPU       12.72
 TTTTTTTTTTTTTTTTTTTTTTTTTTTTTT SHELLXN     TELAPSE       28.14 TCPU       13.65
 TTTTTTTTTTTTTTTTTTTTTTTTTTTTTT MONMO3      TELAPSE       28.26 TCPU       13.78
 NUMERICALLY INTEGRATED DENSITY     60.0000170695
 TTTTTTTTTTTTTTTTTTTTTTTTTTTTTT NUMDFT      TELAPSE       28.48 TCPU       13.99
 CYC   5 ETOT(AU) -4.577900380775E+02 DETOT -2.07E-06 tst  3.23E-08 PX  1.42E-04
 TTTTTTTTTTTTTTTTTTTTTTTTTTTTTT DIIS        TELAPSE       28.48 TCPU       13.99
 DIIS TEST: 0.73821E-07 AT SCF   CYCLE   5 - DIIS ACTIVE - HISTORY:     5 CYCLES
 TTTTTTTTTTTTTTTTTTTTTTTTTTTTTT FDIK        TELAPSE       28.48 TCPU       13.99
 INSULATING STATE
 TOP OF VALENCE BANDS -    BAND     30; K    2; EIG -3.6140404E-01 AU
 TOP OF VALENCE BANDS -    BAND     30; K    1; EIG -3.6166228E-01 AU
 BOTTOM OF VIRTUAL BANDS - BAND     31; K    1; EIG -1.5811652E-02 AU
 INDIRECT ENERGY BAND GAP:   9.4041 eV
 TTTTTTTTTTTTTTTTTTTTTTTTTTTTTT PDIG        TELAPSE       28.48 TCPU       14.00
 CHARGE NORMALIZATION FACTOR   1.00000000
 TOTAL ATOMIC CHARGES:
   8.9404316   8.9404316   8.9404316   8.9404316   8.9404316   8.9404316
   0.5297842   0.5297842   0.5297842   0.5297842   0.5297842   0.5297842
   0.5297842   0.5297842   0.5297842   0.5297842   0.5297842   0.5297842
 TTTTTTTTTTTTTTTTTTTTTTTTTTTTTT MOQGAD      TELAPSE       28.49 TCPU       14.00
 TTTTTTTTTTTTTTTTTTTTTTTTTTTTTT SHELLXN     TELAPSE       29.43 TCPU       14.94
 TTTTTTTTTTTTTTTTTTTTTTTTTTTTTT MONMO3      TELAPSE       29.55 TCPU       15.06
 NUMERICALLY INTEGRATED DENSITY     60.0000170703
 TTTTTTTTTTTTTTTTTTTTTTTTTTTTTT NUMDFT      TELAPSE       29.77 TCPU       15.28
 CYC   6 ETOT(AU) -4.577900381096E+02 DETOT -3.21E-08 tst  6.80E-10 PX  3.04E-05
 TTTTTTTTTTTTTTTTTTTTTTTTTTTTTT DIIS        TELAPSE       29.77 TCPU       15.28
 DIIS TEST: 0.79992E-09 AT SCF   CYCLE   6 - DIIS ACTIVE - HISTORY:     6 CYCLES
 TTTTTTTTTTTTTTTTTTTTTTTTTTTTTT FDIK        TELAPSE       29.77 TCPU       15.28
 INSULATING STATE
 TOP OF VALENCE BANDS -    BAND     30; K    2; EIG -3.6140225E-01 AU
 TOP OF VALENCE BANDS -    BAND     30; K    1; EIG -3.6166002E-01 AU
 BOTTOM OF VIRTUAL BANDS - BAND     31; K    1; EIG -1.5809863E-02 AU
 INDIRECT ENERGY BAND GAP:   9.4041 eV
 TTTTTTTTTTTTTTTTTTTTTTTTTTTTTT PDIG        TELAPSE       29.77 TCPU       15.28
 CHARGE NORMALIZATION FACTOR   1.00000000
 TOTAL ATOMIC CHARGES:
   8.9404243   8.9404243   8.9404243   8.9404243   8.9404243   8.9404243
   0.5297879   0.5297879   0.5297879   0.5297879   0.5297879   0.5297879
   0.5297879   0.5297879   0.5297879   0.5297879   0.5297879   0.5297879
 TTTTTTTTTTTTTTTTTTTTTTTTTTTTTT MOQGAD      TELAPSE       29.78 TCPU       15.28
 TTTTTTTTTTTTTTTTTTTTTTTTTTTTTT SHELLXN     TELAPSE       30.72 TCPU       16.22
 +++ ENERGIES IN A.U. +++
 ::: EXT EL-POLE                                  -4.8324586001136E+02
 ::: EXT EL-SPHEROPOLE                             5.7640935501503E+00
 ::: BIELET ZONE E-E                               6.0322480980329E+02
 ::: TOTAL E-E                                     1.2574304334208E+02
 ::: TOTAL E-N + N-E                              -9.1491822340780E+02
 ::: TOTAL N-N                                    -8.9153018290463E+01
 ::: KINETIC ENERGY                                4.5488205106681E+02
 ::: PSEUDO TOTAL   ENERGY                        -4.2344614728938E+02
 ::: VIRIAL COEFFICIENT                            1.0357906120244E+00
 TTTTTTTTTTTTTTTTTTTTTTTTTTTTTT MONMO3      TELAPSE       30.84 TCPU       16.34
 NUMERICALLY INTEGRATED DENSITY     60.0000170704
 TTTTTTTTTTTTTTTTTTTTTTTTTTTTTT NUMDFT      TELAPSE       31.05 TCPU       16.55
 CYC   7 ETOT(AU) -4.577900381103E+02 DETOT -7.01E-10 tst  1.33E-11 PX  3.04E-05

 == SCF ENDED - CONVERGENCE ON ENERGY      E(AU) -4.5779003811026E+02 CYCLES   7


 ENERGY EXPRESSION=HARTREE+FOCK EXCH*0.00000+(HSE-3c     EXCH)*1.00000+PBEh-3c    CORR


 TOTAL ENERGY(DFT)(AU)(  7) -4.5779003811026E+02 DE-7.0E-10 tester 1.3E-11
 TTTTTTTTTTTTTTTTTTTTTTTTTTTTTT EDFT        TELAPSE       31.05 TCPU       16.55
 
 INFORMATION **** DFTD3 ENERGY **** CALCULATE DFTD3 ENERGY

           DFT-D V3(BJ)
 DF                                         hse3c     
 parameters
 s6       :    1.0000
 s8       :    0.0000
 a1       :    0.4411
 a2       :    4.5182
 k1 k3    :   16.0000   -4.0000
 Cutoff   :   50.2022
 CN-Cutoff:   21.1671
 
 Edisp /kcal,au:   -11.3780 -0.01813205

 E6    /kcal :   -12.2461
 E8    /kcal :     0.0000
 E6(ABC) "   :   0.868019
 
 INFORMATION **** DFTD3 ENERGY **** NORMAL TERMINATION OF DFTD3 MODULE

 GCP ENERGY CALCULATION
  level           hse3c               basis:hse3c
  Nbf            114
  Atoms           18

  Parameters: 
  sigma     1.0000
  eta       1.4086
  alpha     0.2908
  beta      1.9526

  dmp_scal      4.0000
  dmp_exp       6.0000
 cutoffs: 
   distance [bohr] 60.0
   noise    [a.u.] 2.2E-16
 SR-damping   T
 ** gCP correction **
  Egcp:        0.0797159483 / (a.u.) ||      50.0225 / (kcal/mol)
 INFORMATION **** GCP **** NORMAL TERMINATION OF GCP MODULE

 *******************************************************************************

 DFT-D3-GCP DISPERSION AND COUNTERPOISE CORRECTION

 D3 DISPERSION ENERGY (AU)      -1.8132052851829E-02
 GCP ENERGY (AU)                 7.9715948258748E-02
 TOTAL ENERGY + DISP + GCP (AU) -4.5772845421486E+02

 *******************************************************************************

 EIGENVECTORS IN FORTRAN UNIT 10
 TTTTTTTTTTTTTTTTTTTTTTTTTTTTTT END         TELAPSE       31.64 TCPU       17.13
 EEEEEEEEEE TERMINATION  DATE 25 03 2019 TIME 17:47:58.8
NODE    0 CPU TIME =        17.132
NODE    1 CPU TIME =        31.111
NODE    2 CPU TIME =        30.969
NODE    3 CPU TIME =        31.210
NODE    4 CPU TIME =        31.133
NODE    5 CPU TIME =        31.239
NODE    6 CPU TIME =        31.137
NODE    7 CPU TIME =        27.254
    TOTAL CPU TIME =       231.185
