 PROCESS            5  OF            8  WORKING
 PROCESS            0  OF            8  WORKING
 PROCESS            4  OF            8  WORKING

         
 *******************************************************************************
 *                                                                             *
 *                               CRYSTAL17                                     *
 *                      public : 1.0.1 - Feb 1st, 2017                         *
 *                       HTTP://WWW.CRYSTAL.UNITO.IT                           *
 *                                                                             *
 *                              MAIN AUTHORS                                   *
 *                                                                             *
 *  R. DOVESI(1,11), V.R. SAUNDERS(2), C. ROETTI(1,11), R. ORLANDO(1,11),      *
 *  C.M. ZICOVICH-WILSON(1,3), F. PASCALE(4), B. CIVALLERI(1,11),              *
 *  K. DOLL(5), N.M. HARRISON(2,6), I.J. BUSH(7), Ph. D'ARCO(8),               *
 *  M. LLUNELL(9), M. CAUSA'(10), Y. NOEL(8), L. MASCHIO(1,11), A. ERBA(1,11)  *
 *  M. RE'RAT(14), S. CASASSA(1,11)                                            *
 *                                                                             *
 *        CONTRIBUTIONS TO THE CODE HAVE ALSO BEEN GIVEN BY                    *
 *                                                                             *
 *  M. FERRABONE(1,11), M. DE LA PIERRE(1,11), M. FERRERO(1,11),               *
 *  J. BAIMA(1,11), E. ALBANESE(1,11), M.F. PEINTINGER(12), R. BAST(13),       *
 *  B. KIRTMAN(15), V. LACIVITA(1,11), R. DEMICHELIS(1,16)                     *
 *  G. BRANDEBURG(17), S. SALUSTRO(1,11), G. SANSONE(1,11)                     *
 *  M.T. RUGGIERO(18)                                                          *
 *                                                                             *
 * (1) THEORETICAL CHEMISTRY GROUP - UNIVERSITA' DI TORINO - TORINO (ITALY)    *

 * (2) COMPUTATIONAL SCIENCE & ENGINEERING DEPARTMENT - STFC DARESBURY (UK)    *
 * (3) UNIVERSIDAD AUTONOMA DEL ESTADO DE MORELOS - CUERNAVACA (MEXICO)        *
 * (4) UNIVERSITE' DE LORRAINE - NANCY (FRANCE)                                *
 * (5) UNIVERSITAET STUTTGART- STUTTGART (GERMANY)                             *
 * (6) IMPERIAL COLLEGE - LONDON (UK)                                          *
 * (7) OXFORD E-RESEARCH CENTRE - OXFORD (UK)                                  *
 * (8) UPMC - SORBONNE UNIVERSITES - PARIS (FRANCE)                            *
 * (9) UNIVERSIDAD DE BARCELONA - BARCELONA (SPAIN)                            *
 *(10) UNIVERSITA' DI NAPOLI "FEDERICO II" - NAPOLI (ITALY)                    *
 *(11) NIS - NANOSTRUCTURED INTERFACES AND SURFACES - TORINO (ITALY)           *
 *(12) MPI FUER CHEMISCHE ENERGIEKONVERSION - MUELHEIM AN DER RUHR (GERMANY)   *
 *(13) UNIVERSITY OF TROMSO - TROMSO (NORWAY)                                  *
 *(14) UNIVERSITE' DE PAU ET DES PAYS DE L'ADOUR - PAU (FRANCE)                *
 *(15) UNIVERSITY OF CALIFORNIA SANTA BARBARA - SANTA BARBARA (USA)            *
 *(16) CURTIN UNIVERSITY - PERTH (AUSTRALIA)                                   *
 *(17) UNIVERSITY COLLEGE LONDON - LONDON (UK)                                 *
 *(18) CAMBRIDGE UNIVERSITY - CAMBRIDGE (UK)                                   *
 *                                                                             *
 *******************************************************************************
 EEEEEEEEEE STARTING  DATE 25 03 2019 TIME 22:22:27.9
 PROCESS            3  OF            8  WORKING
 PROCESS            6  OF            8  WORKING
 !drive by JGB                                                                   
 PROCESS            2  OF            8  WORKING
 PROCESS            7  OF            8  WORKING
 PROCESS            1  OF            8  WORKING

 CRYSTAL CALCULATION
 (INPUT ACCORDING TO THE INTERNATIONAL TABLES FOR X-RAY CRYSTALLOGRAPHY)
 CRYSTAL FAMILY                       :  HEXAGONAL   
 CRYSTAL CLASS  (GROTH - 1921)        :  TRIGONAL PYRAMIDAL                   

 SPACE GROUP (NONCENTROSYMMETRIC)     :  P 31            

 LATTICE PARAMETERS  (ANGSTROMS AND DEGREES) - CONVENTIONAL CELL
        A           B           C        ALPHA        BETA       GAMMA
     6.12484     6.12484     5.86496    90.00000    90.00000   120.00000


 NUMBER OF IRREDUCIBLE ATOMS IN THE CONVENTIONAL CELL:    6

 INPUT COORDINATES

 ATOM AT. N.              COORDINATES
   1   8     2.357996066774E-01  4.686130551259E-01  8.289694546297E-03
   2   8     7.691679463488E-01  2.374884062568E-01  1.789819809872E-01
   3   1     3.442306772182E-01  5.775715994887E-01  1.331454562336E-01
   4   1     6.381136971136E-02  3.703801173051E-01  7.190349319127E-02
   5   1     6.938849116506E-01  6.334509688387E-02  2.376931008597E-01
   6   1     6.563054425755E-01  2.329340314011E-01  5.602627418185E-02

 *******************************************************************************

 << INFORMATION >>: FROM NOW ON, ALL COORDINATES REFER TO THE PRIMITIVE CELL

 *******************************************************************************

 LATTICE PARAMETERS  (ANGSTROMS AND DEGREES) - PRIMITIVE CELL
       A          B          C        ALPHA      BETA     GAMMA        VOLUME
    6.12484    6.12484    5.86496    90.00000  90.00000 120.00000    190.539738

 COORDINATES OF THE EQUIVALENT ATOMS (FRACTIONAL UNITS)

 N. ATOM EQUIV AT. N.          X                  Y                  Z

   1   1   1    8 O     2.35799606677E-01  4.68613055126E-01  8.28969454630E-03
   2   1   2    8 O    -4.68613055126E-01 -2.32813448449E-01  3.41623027880E-01
   3   1   3    8 O     2.32813448449E-01 -2.35799606677E-01 -3.25043638787E-01

   4   2   1    8 O    -2.30832053651E-01  2.37488406257E-01  1.78981980987E-01
   5   2   2    8 O    -2.37488406257E-01 -4.68320459908E-01 -4.87684685679E-01
   6   2   3    8 O     4.68320459908E-01  2.30832053651E-01 -1.54351352346E-01

   7   3   1    1 H     3.44230677218E-01 -4.22428400511E-01  1.33145456234E-01
   8   3   2    1 H     4.22428400511E-01 -2.33340922270E-01  4.66478789567E-01
   9   3   3    1 H     2.33340922270E-01 -3.44230677218E-01 -2.00187877100E-01

  10   4   1    1 H     6.38113697114E-02  3.70380117305E-01  7.19034931913E-02
  11   4   2    1 H    -3.70380117305E-01 -3.06568747594E-01  4.05236826525E-01
  12   4   3    1 H     3.06568747594E-01 -6.38113697114E-02 -2.61429840142E-01

  13   5   1    1 H    -3.06115088349E-01  6.33450968839E-02  2.37693100860E-01
  14   5   2    1 H    -6.33450968839E-02 -3.69460185233E-01 -4.28973565807E-01
  15   5   3    1 H     3.69460185233E-01  3.06115088349E-01 -9.56402324736E-02

  16   6   1    1 H    -3.43694557424E-01  2.32934031401E-01  5.60262741819E-02
  17   6   2    1 H    -2.32934031401E-01  4.23371411174E-01  3.89359607515E-01
  18   6   3    1 H    -4.23371411174E-01  3.43694557424E-01 -2.77307059151E-01

 NUMBER OF SYMMETRY OPERATORS         :    3
 *******************************************************************************
 * GEOMETRY EDITING - INPUT COORDINATES ARE GIVEN IN ANGSTROM         
 *******************************************************************************

 GEOMETRY NOW FULLY CONSISTENT WITH THE GROUP

 GCALCO - MAX INDICES DIRECT LATTICE VECTOR    15    15    14
 NO.OF VECTORS CREATED 6999 STARS  386 RMAX   128.89077 BOHR

 GEOMETRY FOR WAVE FUNCTION - DIMENSIONALITY OF THE SYSTEM    3
 (NON PERIODIC DIRECTION: LATTICE PARAMETER FORMALLY SET TO 500)
 *******************************************************************************
 LATTICE PARAMETERS (ANGSTROMS AND DEGREES) - BOHR = 0.5291772083 ANGSTROM
 PRIMITIVE CELL - CENTRING CODE 1/0 VOLUME=   190.539738 - DENSITY  0.942 g/cm^3
         A              B              C           ALPHA      BETA       GAMMA 
     6.12484406     6.12484406     5.86495739    90.000000  90.000000 120.000000
 *******************************************************************************
 ATOMS IN THE ASYMMETRIC UNIT    6 - ATOMS IN THE UNIT CELL:   18
     ATOM                 X/A                 Y/B                 Z/C    
 *******************************************************************************
      1 T   8 O     2.357996066774E-01  4.686130551259E-01  8.289694546297E-03
      2 F   8 O    -4.686130551259E-01 -2.328134484485E-01  3.416230278796E-01
      3 F   8 O     2.328134484485E-01 -2.357996066774E-01 -3.250436387870E-01
      4 T   8 O    -2.308320536512E-01  2.374884062568E-01  1.789819809872E-01
      5 F   8 O    -2.374884062568E-01 -4.683204599080E-01 -4.876846856795E-01
      6 F   8 O     4.683204599080E-01  2.308320536512E-01 -1.543513523461E-01
      7 T   1 H     3.442306772182E-01 -4.224284005113E-01  1.331454562336E-01
      8 F   1 H     4.224284005113E-01 -2.333409222705E-01  4.664787895669E-01
      9 F   1 H     2.333409222705E-01 -3.442306772182E-01 -2.001878770997E-01
     10 T   1 H     6.381136971136E-02  3.703801173051E-01  7.190349319127E-02
     11 F   1 H    -3.703801173051E-01 -3.065687475937E-01  4.052368265246E-01
     12 F   1 H     3.065687475937E-01 -6.381136971136E-02 -2.614298401421E-01
     13 T   1 H    -3.061150883494E-01  6.334509688387E-02  2.376931008597E-01
     14 F   1 H    -6.334509688387E-02 -3.694601852333E-01 -4.289735658070E-01
     15 F   1 H     3.694601852333E-01  3.061150883494E-01 -9.564023247363E-02
     16 T   1 H    -3.436945574245E-01  2.329340314011E-01  5.602627418185E-02
     17 F   1 H    -2.329340314011E-01  4.233714111744E-01  3.893596075152E-01
     18 F   1 H    -4.233714111744E-01  3.436945574245E-01 -2.773070591515E-01

 T = ATOM BELONGING TO THE ASYMMETRIC UNIT

 ****    3 SYMMOPS - TRANSLATORS IN FRACTIONAL UNITS
 **** MATRICES AND TRANSLATORS IN THE CRYSTALLOGRAPHIC REFERENCE FRAME
   V INV                    ROTATION MATRICES                   TRANSLATORS
   1   1  1.00  0.00  0.00  0.00  1.00  0.00  0.00  0.00  1.00  0.00  0.00  0.00
   2   3  0.00 -1.00  0.00  1.00 -1.00  0.00  0.00  0.00  1.00  0.00  0.00  0.33
   3   2 -1.00  1.00  0.00 -1.00  0.00  0.00  0.00  0.00  1.00  0.00  0.00  0.67

 DIRECT LATTICE VECTORS CARTESIAN COMPONENTS (ANGSTROM)
          X                    Y                    Z
   0.530427055018E+01  -0.306242203000E+01   0.000000000000E+00
   0.000000000000E+00   0.612484406000E+01   0.000000000000E+00
   0.000000000000E+00   0.000000000000E+00   0.586495739000E+01


 CARTESIAN COORDINATES - PRIMITIVE CELL
 *******************************************************************************
 *      ATOM          X(ANGSTROM)         Y(ANGSTROM)         Z(ANGSTROM)
 *******************************************************************************
    1     8 O     1.250744909443E+00  2.148063976972E+00  4.861870529015E-02
    2     8 O    -2.485650427733E+00  9.144876745249E-03  2.003604501957E+00
    3     8 O     1.234905518291E+00 -2.157208853717E+00 -1.906367091377E+00
    4     8 O    -1.224395664219E+00  2.161484620712E+00  1.049721692068E+00
    5     8 O    -1.259702759317E+00 -2.141100059854E+00 -2.860249901266E+00
    6     8 O     2.484098423536E+00 -2.038456085884E-02 -9.052641045989E-01
    7     1 H     1.825892643636E+00  2.483356371038E+00  7.808924274822E-01
    8     1 H    -3.063596025787E+00  3.395912284531E-01  2.735878224149E+00
    9     1 H     1.237703382151E+00 -2.822947599491E+00 -1.174093369184E+00
   10     1 H     3.384727691265E-01  2.073103117050E+00  4.217109237590E-01
   11     1 H    -1.964596348593E+00 -7.434255419720E-01  2.376696720426E+00
   12     1 H     1.626123579466E+00 -1.329677575078E+00 -1.533274872908E+00
   13     1 H    -1.623717248097E+00  1.325432430656E+00  1.394059908439E+00
   14     1 H    -3.359995318993E-01 -2.068896600743E+00 -2.515911684894E+00
   15     1 H     1.959716779996E+00  7.434641700870E-01 -5.609258882276E-01
   16     1 H    -1.823048919203E+00  2.479222402847E+00  3.285917107970E-01
   17     1 H    -1.235545122895E+00 -2.818417877795E+00  2.283577507464E+00
   18     1 H     3.058594042098E+00  3.391954749484E-01 -1.626394085870E+00

 *******************************************************************************
 STARTING BASIS SET HANDLING 
 *******************************************************************************

 Loading internal basis set: DEF2-MSVP           

 Please cite in your publication:
 Fully Optimized Contracted Gaussian Basis Sets for Atoms Li to Kr. A. Schäfer, 
 H. Horn and R. Ahlrichs; J. Chem. Phys. 97, 2571 (1992).                       
                                                                                
                    
 S. Grimme, J. G. Brandenburg, C. Bannwarth, and A. Hansen, J. Chem. Phys., 143,
  054107 (2015).                                                                
                                                                                
                    

 *******************************************************************************
 LOCAL ATOMIC FUNCTIONS BASIS SET
 *******************************************************************************
   ATOM   X(AU)   Y(AU)   Z(AU)  N. TYPE  EXPONENT  S COEF   P COEF   D/F/G COEF
 *******************************************************************************
   1 O    2.364   4.059   0.092
                                  1 S  
                                         6.773E+03 1.727E-03 0.000E+00 0.000E+00
                                         1.017E+03 1.325E-02 0.000E+00 0.000E+00
                                         2.313E+02 6.603E-02 0.000E+00 0.000E+00
                                         6.501E+01 2.353E-01 0.000E+00 0.000E+00
                                         2.050E+01 5.498E-01 0.000E+00 0.000E+00
                                  2 S  
                                         6.716E+00 1.000E+00 0.000E+00 0.000E+00
                                  3 S  
                                         1.147E+00 1.000E+00 0.000E+00 0.000E+00
                                  4 S  
                                         3.342E-01 1.000E+00 0.000E+00 0.000E+00
                           5-     7 P  
                                         1.769E+01 0.000E+00 4.359E-02 0.000E+00
                                         3.854E+00 0.000E+00 2.318E-01 0.000E+00
                                         1.047E+00 0.000E+00 5.146E-01 0.000E+00
                           8-    10 P  
                                         2.759E-01 0.000E+00 1.000E+00 0.000E+00
                          11-    15 D  
                                         8.000E-01 0.000E+00 0.000E+00 1.000E+00
   2 O   -4.697   0.017   3.786
   3 O    2.334  -4.077  -3.603
   4 O   -2.314   4.085   1.984
   5 O   -2.380  -4.046  -5.405
   6 O    4.694  -0.039  -1.711
   7 H    3.450   4.693   1.476
                                 91 S  
                                         1.874E+01 1.968E-02 0.000E+00 0.000E+00
                                         2.826E+00 1.380E-01 0.000E+00 0.000E+00
                                         6.401E-01 4.783E-01 0.000E+00 0.000E+00
                                 92 S  
                                         1.756E-01 1.000E+00 0.000E+00 0.000E+00
   8 H   -5.789   0.642   5.170
   9 H    2.339  -5.335  -2.219
  10 H    0.640   3.918   0.797
  11 H   -3.713  -1.405   4.491
  12 H    3.073  -2.513  -2.897
  13 H   -3.068   2.505   2.634
  14 H   -0.635  -3.910  -4.754
  15 H    3.703   1.405  -1.060
  16 H   -3.445   4.685   0.621
  17 H   -2.335  -5.326   4.315
  18 H    5.780   0.641  -3.073

 *******************************************************************************
 FINISHED BASIS SET HANDLING 
 *******************************************************************************

 INFORMATION **** SET_MPP **** PCRYSTAL CALCULATION
 INFORMATION **** READM2 **** NEW DEFAULT: FOCK/KS MATRIX MIXING SET TO 30 %
 INFORMATION **** READM2 **** NEW DEFAULT: FULL DIRECT SCF MODE
 INFORMATION **** READM2 **** NEW DEFAULT: COULOMB BIPOLAR BUFFER SET TO 32 Mb
 INFORMATION **** READM2 **** NEW DEFAULT: EXCHANGE BIPOLAR BUFFER SET TO 32 Mb

 *******************************************************************************
 NEW DEFAULT: DFT INTEGRATION GRID INCREASED TO XLGRID
 NEW DEFAULT: DIIS ACCELERATOR ACTIVE
 USE KEYWORD NODIIS TO TURN IT OFF
 *******************************************************************************

 INFORMATION **** RDDFTP **** HSE-3c calculation
 INFORMATION **** RDDFTP **** HSE screened hybrid functional combined with D3 and gCP

PLEASE CITE:
(1) HSE-3c Reference
 J. G. Brandenburg, E. Caldeweyer, and S. Grimme, 
 Phys. Chem. Chem. Phys. 18, 15519 (2016)
(2) DFT-D3 Reference
 S. Grimme, J. Antony, S. Ehrlich,
 and H. Krieg, J. Chem. Phys. 132, 154104 (2010)
(3) gCP Reference
 H. Kruse and S. Grimme J. Chem. Phys, 136, 154101 (2012)
 J. G. Brandenburg, M. Alessio, B. Civalleri, M. F. Peintinger
 T. Bredow, and S. Grimme, J. Phys. Chem. A, 117, 9282 (2013) 

 WARNING **** RDDFTP **** HSE3c-HJS ACTIVE
 RANGE SEPARATION - OMEGA:   0.110000000000000     
 WARNING **** RDDFTP **** HSE-3c has to be combined with def2-mSVP basis set
 WARNING **** RDDFTP **** Note: Harmonic frequencies are scaled by 0.95
 WARNING **** RDDFTP **** as recommended in original publication
 INFORMATION **** BIPOSIZE **** COULOMB BIPOLAR BUFFER SET TO    60000000
 INFORMATION **** EXCHSIZE **** EXCHANGE BIPOLAR BUFFER SIZE SET TO    40000000
 *******************************************************************************
 N. OF ATOMS PER CELL        18  COULOMB OVERLAP TOL         (T1) 10**   -6
 NUMBER OF SHELLS            66  COULOMB PENETRATION TOL     (T2) 10**   -6
 NUMBER OF AO               114  EXCHANGE OVERLAP TOL        (T3) 10**   -6
 N. OF ELECTRONS PER CELL    60  EXCHANGE PSEUDO OVP (F(G))  (T4) 10**   -6
 CORE ELECTRONS PER CELL     12  EXCHANGE PSEUDO OVP (P(G))  (T5) 10**  -12
 N. OF SYMMETRY OPERATORS     3  POLE ORDER IN MONO ZONE                  4
 *******************************************************************************
 TYPE OF CALCULATION :  RESTRICTED CLOSED SHELL
 KOHN-SHAM HAMILTONIAN

 (EXCHANGE)[CORRELATION] FUNCTIONAL:(HSE-3c)[PBEh-3c]

 RANGE-SEPARATED HYBRID FUNCTIONAL 
 OMEGA (SHORT-RANGE)[LONG-RANGE]:(    0.1100)[    0.0000]

 HYBRID EXCHANGE - PERCENTAGE OF FOCK EXCHANGE    42.0000

 CAPPA:IS1  2;IS2  2;IS3  2; K PTS MONK NET   4; SYMMOPS:K SPACE   6;G SPACE   3

 *******************************************************************************
 MAX NUMBER OF SCF CYCLES      50  CONVERGENCE ON DELTAP        10**-16
 WEIGHT OF F(I) IN F(I+1)      30% CONVERGENCE ON ENERGY        10**- 6
 S(K) EIGENV. THRESHOLD  10*10.**-4
 SHRINK. FACT.(MONKH.)    2  2  2  NUMBER OF K POINTS IN THE IBZ      4
 SHRINKING FACTOR(GILAT NET)    2  NUMBER OF K POINTS(GILAT NET)      4
 *******************************************************************************
 *** K POINTS COORDINATES (OBLIQUE COORDINATES IN UNITS OF IS =  2)
   1-R(  0  0  0)   2-R(  1  0  0)   3-R(  0  0  1)   4-R(  1  0  1)

 DIRECT LATTICE VECTORS COMPON. (A.U.)     RECIP. LATTICE VECTORS COMPON. (A.U.) 
        X            Y            Z              X            Y            Z
   10.0236187   -5.7871389    0.0000000      0.6268380    0.0000000    0.0000000
    0.0000000   11.5742779    0.0000000      0.3134190    0.5428577    0.0000000
    0.0000000    0.0000000   11.0831633      0.0000000    0.0000000    0.5669126

 DISK SPACE FOR EIGENVECTORS (FTN 10)       51984 REALS

 SYMMETRY ADAPTION OF THE BLOCH FUNCTIONS ENABLED
 TTTTTTTTTTTTTTTTTTTTTTTTTTTTTT gordsh1     TELAPSE        0.15 TCPU        0.04

 MATRIX SIZE: P(G)   54144, F(G)    9573, P(G) IRR    9195, F(G) IRR    3223
 MAX G-VECTOR INDEX FOR 1- AND 2-ELECTRON INTEGRALS  75

 TTTTTTTTTTTTTTTTTTTTTTTTTTTTTT INPUT       TELAPSE        0.16 TCPU        0.05

 NEIGHBORS OF THE NON-EQUIVALENT ATOMS

 N = NUMBER OF NEIGHBORS AT DISTANCE R
    ATOM  N     R/ANG      R/AU   NEIGHBORS (ATOM LABELS AND CELL INDICES)
   1 O    1     0.9885     1.8679   10 H    0 0 0
   1 O    1     0.9897     1.8702    7 H    0 0 0
   1 O    1     1.6812     3.1771    9 H    0 1 0
   1 O    1     1.6873     3.1886   15 H    0 0 0
   1 O    1     2.6700     5.0455    4 O    0 0 0
   1 O    2     2.6708     5.0470    2 O    1 1 0    3 O    0 1 0

   4 O    1     0.9884     1.8679   13 H    0 0 0
   4 O    1     0.9896     1.8701   16 H    0 0 0
   4 O    1     1.6833     3.1809   17 H    0 1 0
   4 O    1     1.6866     3.1873   10 H    0 0 0
   4 O    1     2.6700     5.0455    1 O    0 0 0
   4 O    1     2.6708     5.0471    2 O    0 0 0

   7 H    1     0.9897     1.8702    1 O    0 0 0
   7 H    1     1.5842     2.9937   10 H    0 0 0
   7 H    1     1.6812     3.1771    2 O    1 1 0
   7 H    2     2.1995     4.1565    8 H    1 1 0    9 H    0 1 0
   7 H    1     2.2013     4.1598   15 H    0 0 0
   7 H    1     2.2057     4.1682   11 H    1 1 0

  10 H    1     0.9885     1.8679    1 O    0 0 0
  10 H    1     1.5842     2.9937    7 H    0 0 0
  10 H    1     1.6866     3.1873    4 O    0 0 0
  10 H    1     2.2013     4.1599   16 H    0 0 0
  10 H    1     2.2057     4.1682    9 H    0 1 0
  10 H    1     2.3140     4.3729   13 H    0 0 0

  13 H    1     0.9884     1.8679    4 O    0 0 0
  13 H    1     1.5831     2.9916   16 H    0 0 0
  13 H    1     1.6873     3.1886    2 O    0 0 0
  13 H    1     2.2013     4.1598    8 H    0 0 0
  13 H    1     2.2060     4.1687   17 H    0 1 0
  13 H    1     2.3140     4.3729   10 H    0 0 0

  16 H    1     0.9896     1.8701    4 O    0 0 0
  16 H    1     1.5831     2.9916   13 H    0 0 0
  16 H    1     1.6833     3.1809    6 O   -1 0 0
  16 H    1     2.2013     4.1599   10 H    0 0 0
  16 H    2     2.2026     4.1623   17 H    0 1 0   18 H   -1 0 0
  16 H    1     2.2060     4.1687   15 H   -1 0 0


 SYMMETRY ALLOWED INTERNAL DEGREE(S) OF FREEDOM:  17
 TTTTTTTTTTTTTTTTTTTTTTTTTTTTTT SYMM        TELAPSE        2.11 TCPU        1.99
 TTTTTTTTTTTTTTTTTTTTTTTTTTTTTT INT_SCREEN  TELAPSE        2.18 TCPU        2.05

 DFT PARAMETERS

     ATOM       ELECTRONS   NET CHARGE   R(ANGSTROM)
   1   8  O       8.0000      0.0000     0.74000000
   7   1  H       1.0000      0.0000     1.11000000

 SIZE OF GRID=     145804
 TTTTTTTTTTTTTTTTTTTTTTTTTTTTTT MAKE_GRID2  TELAPSE        3.85 TCPU        3.69
 BECKE WEIGHT FUNCTION
 RADSAFE =     2.00
 TOLERANCES - DENSITY:10**- 6; POTENTIAL:10**- 9; GRID WGT:10**-14

 RADIAL INTEGRATION  - INTERVALS (POINTS,UPPER LIMIT):            1( 75,  4.0*R)

 ANGULAR INTEGRATION - INTERVALS (ACCURACY LEVEL [N. POINTS] UPPER LIMIT):
  1(  4[  86]   0.2)  2(  8[ 194]   0.5)  3( 12[ 350]   0.9)  4( 16[ 974]   3.5)
  5( 12[ 350]9999.0)
 TTTTTTTTTTTTTTTTTTTTTTTTTTTTTT INT_CALC    TELAPSE        3.86 TCPU        3.71
 EEEEEEEEEE INT_CALC TERMINATION  DATE 25 03 2019 TIME 22:22:31.6

 *******************************************************************************
 !drive by JGB                                                                   
 CRYSTAL - SCF - TYPE OF CALCULATION :  RESTRICTED CLOSED SHELL
 *******************************************************************************

 CAPPA:IS1  2;IS2  2;IS3  2; K PTS MONK NET   4; SYMMOPS:K SPACE   6;G SPACE   3

 TTTTTTTTTTTTTTTTTTTTTTTTTTTTTT SDIK        TELAPSE        3.89 TCPU        3.73

 AAAAAAAAAAAAAAAAAAAAAAAAAAAAAAAAAAAAAAAAAAAAAAAAAAAAAAAAAAAAAAAAAAAAAAAAAAAAAAA
         ATOMIC WAVEFUNCTION(S)


 NUCLEAR CHARGE  8.0  SYMMETRY SPECIES            S    P
 N. ELECTRONS    8.0  NUMBER OF PRIMITIVE GTOS    8    4
                      NUMBER OF CONTRACTED GTOS   4    2
                      NUMBER OF CLOSED SHELLS     2    0
                      OPEN SHELL OCCUPATION       0    4

  ZNUC SCFIT  TOTAL HF ENERGY   KINETIC ENERGY   VIRIAL THEOREM ACCURACY
   8.0  12   -7.477373220E+01  7.477365593E+01 -2.000001020E+00  3.8E-06

 NUCLEAR CHARGE  1.0  SYMMETRY SPECIES            S
 N. ELECTRONS    1.0  NUMBER OF PRIMITIVE GTOS    4
                      NUMBER OF CONTRACTED GTOS   2
                      NUMBER OF CLOSED SHELLS     0
                      OPEN SHELL OCCUPATION       1

  ZNUC SCFIT  TOTAL HF ENERGY   KINETIC ENERGY   VIRIAL THEOREM ACCURACY
   1.0   1   -4.977266687E-01  5.190767460E-01 -1.958869132E+00  1.8E-16

 AAAAAAAAAAAAAAAAAAAAAAAAAAAAAAAAAAAAAAAAAAAAAAAAAAAAAAAAAAAAAAAAAAAAAAAAAAAAAAA

 CHARGE NORMALIZATION FACTOR   1.00000000
 TOTAL ATOMIC CHARGES:
   8.0000000   8.0000000   8.0000000   8.0000000   8.0000000   8.0000000
   1.0000000   1.0000000   1.0000000   1.0000000   1.0000000   1.0000000
   1.0000000   1.0000000   1.0000000   1.0000000   1.0000000   1.0000000
 TTTTTTTTTTTTTTTTTTTTTTTTTTTTTT MOQGAD      TELAPSE        4.66 TCPU        4.50
 TTTTTTTTTTTTTTTTTTTTTTTTTTTTTT SHELLXN     TELAPSE        7.42 TCPU        6.17
 TTTTTTTTTTTTTTTTTTTTTTTTTTTTTT MONMO3      TELAPSE        7.50 TCPU        6.21
 NUMERICALLY INTEGRATED DENSITY     60.0000067166
 TTTTTTTTTTTTTTTTTTTTTTTTTTTTTT NUMDFT      TELAPSE        7.95 TCPU        6.59
 CYC   0 ETOT(AU) -4.580116190661E+02 DETOT -4.58E+02 tst  0.00E+00 PX  1.00E+00
 TTTTTTTTTTTTTTTTTTTTTTTTTTTTTT DIIS        TELAPSE        8.00 TCPU        6.63
 TTTTTTTTTTTTTTTTTTTTTTTTTTTTTT FDIK        TELAPSE        8.93 TCPU        7.24
 INSULATING STATE
 TOP OF VALENCE BANDS -    BAND     30; K    1; EIG -4.1587070E-01 AU
 BOTTOM OF VIRTUAL BANDS - BAND     31; K    1; EIG -4.1207032E-02 AU
 DIRECT ENERGY BAND GAP:  10.1951 eV
 TTTTTTTTTTTTTTTTTTTTTTTTTTTTTT PDIG        TELAPSE        9.08 TCPU        7.39
 CHARGE NORMALIZATION FACTOR   1.00000000
 TOTAL ATOMIC CHARGES:
   9.0761175   9.0761175   9.0761175   9.0756426   9.0756426   9.0756426
   0.4638422   0.4638422   0.4638422   0.4605446   0.4605446   0.4605446
   0.4599398   0.4599398   0.4599398   0.4639133   0.4639133   0.4639133
 TTTTTTTTTTTTTTTTTTTTTTTTTTTTTT MOQGAD      TELAPSE        9.13 TCPU        7.44
 TTTTTTTTTTTTTTTTTTTTTTTTTTTTTT SHELLXN     TELAPSE       11.58 TCPU        9.15
 TTTTTTTTTTTTTTTTTTTTTTTTTTTTTT MONMO3      TELAPSE       11.83 TCPU        9.28
 NUMERICALLY INTEGRATED DENSITY     60.0000021569
 TTTTTTTTTTTTTTTTTTTTTTTTTTTTTT NUMDFT      TELAPSE       12.46 TCPU        9.73
 CYC   1 ETOT(AU) -4.576459975131E+02 DETOT  3.66E-01 tst  0.00E+00 PX  1.00E+00
 TTTTTTTTTTTTTTTTTTTTTTTTTTTTTT DIIS        TELAPSE       12.53 TCPU        9.80
 DIIS TEST: 0.57104E+00 AT SCF   CYCLE   1 - MIX   30 %
 TTTTTTTTTTTTTTTTTTTTTTTTTTTTTT FDIK        TELAPSE       12.53 TCPU        9.80
 INSULATING STATE
 TOP OF VALENCE BANDS -    BAND     30; K    1; EIG -3.1517382E-01 AU
 BOTTOM OF VIRTUAL BANDS - BAND     31; K    1; EIG  2.4012761E-02 AU
 DIRECT ENERGY BAND GAP:   9.2297 eV
 TTTTTTTTTTTTTTTTTTTTTTTTTTTTTT PDIG        TELAPSE       12.53 TCPU        9.81
 CHARGE NORMALIZATION FACTOR   1.00000000
 TOTAL ATOMIC CHARGES:
   8.8752153   8.8752153   8.8752153   8.8750646   8.8750646   8.8750646
   0.5653502   0.5653502   0.5653502   0.5601484   0.5601484   0.5601484
   0.5590431   0.5590431   0.5590431   0.5651785   0.5651785   0.5651785
 TTTTTTTTTTTTTTTTTTTTTTTTTTTTTT MOQGAD      TELAPSE       12.54 TCPU        9.81
 TTTTTTTTTTTTTTTTTTTTTTTTTTTTTT SHELLXN     TELAPSE       14.25 TCPU       11.51
 TTTTTTTTTTTTTTTTTTTTTTTTTTTTTT MONMO3      TELAPSE       14.57 TCPU       11.82
 NUMERICALLY INTEGRATED DENSITY     60.0000032415
 TTTTTTTTTTTTTTTTTTTTTTTTTTTTTT NUMDFT      TELAPSE       15.01 TCPU       12.27
 CYC   2 ETOT(AU) -4.577664566351E+02 DETOT -1.20E-01 tst  2.98E-03 PX  1.17E-01
 TTTTTTTTTTTTTTTTTTTTTTTTTTTTTT DIIS        TELAPSE       15.01 TCPU       12.27
 DIIS TEST: 0.11730E+00 AT SCF   CYCLE   2 - DIIS ACTIVE - HISTORY:     2 CYCLES
 TTTTTTTTTTTTTTTTTTTTTTTTTTTTTT FDIK        TELAPSE       15.04 TCPU       12.27
 INSULATING STATE
 TOP OF VALENCE BANDS -    BAND     30; K    1; EIG -3.5651667E-01 AU
 BOTTOM OF VIRTUAL BANDS - BAND     31; K    1; EIG  2.3613532E-02 AU
 DIRECT ENERGY BAND GAP:  10.3439 eV
 TTTTTTTTTTTTTTTTTTTTTTTTTTTTTT PDIG        TELAPSE       15.04 TCPU       12.27
 CHARGE NORMALIZATION FACTOR   1.00000000
 TOTAL ATOMIC CHARGES:
   8.9443111   8.9443111   8.9443111   8.9441950   8.9441950   8.9441950
   0.5305122   0.5305122   0.5305122   0.5258049   0.5258049   0.5258049
   0.5247597   0.5247597   0.5247597   0.5304171   0.5304171   0.5304171
 TTTTTTTTTTTTTTTTTTTTTTTTTTTTTT MOQGAD      TELAPSE       15.05 TCPU       12.28
 TTTTTTTTTTTTTTTTTTTTTTTTTTTTTT SHELLXN     TELAPSE       16.76 TCPU       13.98
 TTTTTTTTTTTTTTTTTTTTTTTTTTTTTT MONMO3      TELAPSE       17.08 TCPU       14.30
 NUMERICALLY INTEGRATED DENSITY     60.0000027981
 TTTTTTTTTTTTTTTTTTTTTTTTTTTTTT NUMDFT      TELAPSE       17.57 TCPU       14.79
 CYC   3 ETOT(AU) -4.577969799503E+02 DETOT -3.05E-02 tst  2.53E-04 PX  4.05E-02
 TTTTTTTTTTTTTTTTTTTTTTTTTTTTTT DIIS        TELAPSE       17.58 TCPU       14.80
 DIIS TEST: 0.25065E-03 AT SCF   CYCLE   3 - DIIS ACTIVE - HISTORY:     3 CYCLES
 TTTTTTTTTTTTTTTTTTTTTTTTTTTTTT FDIK        TELAPSE       17.60 TCPU       14.82
 INSULATING STATE
 TOP OF VALENCE BANDS -    BAND     30; K    1; EIG -3.5473701E-01 AU
 BOTTOM OF VIRTUAL BANDS - BAND     31; K    1; EIG  2.5592583E-02 AU
 DIRECT ENERGY BAND GAP:  10.3493 eV
 TTTTTTTTTTTTTTTTTTTTTTTTTTTTTT PDIG        TELAPSE       17.60 TCPU       14.82
 CHARGE NORMALIZATION FACTOR   1.00000000
 TOTAL ATOMIC CHARGES:
   8.9428613   8.9428613   8.9428613   8.9426776   8.9426776   8.9426776
   0.5311766   0.5311766   0.5311766   0.5265891   0.5265891   0.5265891
   0.5255471   0.5255471   0.5255471   0.5311484   0.5311484   0.5311484
 TTTTTTTTTTTTTTTTTTTTTTTTTTTTTT MOQGAD      TELAPSE       17.60 TCPU       14.82
 TTTTTTTTTTTTTTTTTTTTTTTTTTTTTT SHELLXN     TELAPSE       19.32 TCPU       16.53
 TTTTTTTTTTTTTTTTTTTTTTTTTTTTTT MONMO3      TELAPSE       19.71 TCPU       16.91
 NUMERICALLY INTEGRATED DENSITY     60.0000028019
 TTTTTTTTTTTTTTTTTTTTTTTTTTTTTT NUMDFT      TELAPSE       20.18 TCPU       17.38
 CYC   4 ETOT(AU) -4.577970345708E+02 DETOT -5.46E-05 tst  7.10E-07 PX  1.06E-03
 TTTTTTTTTTTTTTTTTTTTTTTTTTTTTT DIIS        TELAPSE       20.18 TCPU       17.38
 DIIS TEST: 0.67888E-05 AT SCF   CYCLE   4 - DIIS ACTIVE - HISTORY:     4 CYCLES
 TTTTTTTTTTTTTTTTTTTTTTTTTTTTTT FDIK        TELAPSE       24.03 TCPU       17.43
 INSULATING STATE
 TOP OF VALENCE BANDS -    BAND     30; K    1; EIG -3.5467561E-01 AU
 BOTTOM OF VIRTUAL BANDS - BAND     31; K    1; EIG  2.5790570E-02 AU
 DIRECT ENERGY BAND GAP:  10.3530 eV
 TTTTTTTTTTTTTTTTTTTTTTTTTTTTTT PDIG        TELAPSE       24.03 TCPU       17.43
 CHARGE NORMALIZATION FACTOR   1.00000000
 TOTAL ATOMIC CHARGES:
   8.9428851   8.9428851   8.9428851   8.9427619   8.9427619   8.9427619
   0.5311937   0.5311937   0.5311937   0.5265464   0.5265464   0.5265464
   0.5254759   0.5254759   0.5254759   0.5311371   0.5311371   0.5311371
 TTTTTTTTTTTTTTTTTTTTTTTTTTTTTT MOQGAD      TELAPSE       24.04 TCPU       17.44
 TTTTTTTTTTTTTTTTTTTTTTTTTTTTTT SHELLXN     TELAPSE       25.77 TCPU       19.15
 TTTTTTTTTTTTTTTTTTTTTTTTTTTTTT MONMO3      TELAPSE       26.07 TCPU       19.44
 NUMERICALLY INTEGRATED DENSITY     60.0000027991
 TTTTTTTTTTTTTTTTTTTTTTTTTTTTTT NUMDFT      TELAPSE       26.57 TCPU       19.93
 CYC   5 ETOT(AU) -4.577970360737E+02 DETOT -1.50E-06 tst  3.88E-08 PX  1.76E-04
 TTTTTTTTTTTTTTTTTTTTTTTTTTTTTT DIIS        TELAPSE       26.57 TCPU       19.93
 DIIS TEST: 0.13016E-06 AT SCF   CYCLE   5 - DIIS ACTIVE - HISTORY:     5 CYCLES
 TTTTTTTTTTTTTTTTTTTTTTTTTTTTTT FDIK        TELAPSE       26.58 TCPU       19.93
 INSULATING STATE
 TOP OF VALENCE BANDS -    BAND     30; K    1; EIG -3.5466248E-01 AU
 BOTTOM OF VIRTUAL BANDS - BAND     31; K    1; EIG  2.5807315E-02 AU
 DIRECT ENERGY BAND GAP:  10.3531 eV
 TTTTTTTTTTTTTTTTTTTTTTTTTTTTTT PDIG        TELAPSE       26.58 TCPU       19.94
 CHARGE NORMALIZATION FACTOR   1.00000000
 TOTAL ATOMIC CHARGES:
   8.9428602   8.9428602   8.9428602   8.9426733   8.9426733   8.9426733
   0.5312035   0.5312035   0.5312035   0.5265729   0.5265729   0.5265729
   0.5255194   0.5255194   0.5255194   0.5311707   0.5311707   0.5311707
 TTTTTTTTTTTTTTTTTTTTTTTTTTTTTT MOQGAD      TELAPSE       26.58 TCPU       19.94
 TTTTTTTTTTTTTTTTTTTTTTTTTTTTTT SHELLXN     TELAPSE       28.30 TCPU       21.65
 TTTTTTTTTTTTTTTTTTTTTTTTTTTTTT MONMO3      TELAPSE       28.70 TCPU       21.97
 NUMERICALLY INTEGRATED DENSITY     60.0000027991
 TTTTTTTTTTTTTTTTTTTTTTTTTTTTTT NUMDFT      TELAPSE       29.13 TCPU       22.41
 CYC   6 ETOT(AU) -4.577970360734E+02 DETOT  3.15E-10 tst  5.56E-10 PX  4.80E-05
 TTTTTTTTTTTTTTTTTTTTTTTTTTTTTT DIIS        TELAPSE       29.14 TCPU       22.41
 DIIS TEST: 0.93491E-08 AT SCF   CYCLE   6 - DIIS ACTIVE - HISTORY:     6 CYCLES
 TTTTTTTTTTTTTTTTTTTTTTTTTTTTTT FDIK        TELAPSE       29.15 TCPU       22.41
 INSULATING STATE
 TOP OF VALENCE BANDS -    BAND     30; K    1; EIG -3.5465406E-01 AU
 BOTTOM OF VIRTUAL BANDS - BAND     31; K    1; EIG  2.5808335E-02 AU
 DIRECT ENERGY BAND GAP:  10.3529 eV
 TTTTTTTTTTTTTTTTTTTTTTTTTTTTTT PDIG        TELAPSE       29.15 TCPU       22.42
 CHARGE NORMALIZATION FACTOR   1.00000000
 TOTAL ATOMIC CHARGES:
   8.9428233   8.9428233   8.9428233   8.9426979   8.9426979   8.9426979
   0.5312202   0.5312202   0.5312202   0.5265804   0.5265804   0.5265804
   0.5255139   0.5255139   0.5255139   0.5311643   0.5311643   0.5311643
 TTTTTTTTTTTTTTTTTTTTTTTTTTTTTT MOQGAD      TELAPSE       29.15 TCPU       22.42
 TTTTTTTTTTTTTTTTTTTTTTTTTTTTTT SHELLXN     TELAPSE       30.87 TCPU       24.13
 +++ ENERGIES IN A.U. +++
 ::: EXT EL-POLE                                  -3.7976572062589E+02
 ::: EXT EL-SPHEROPOLE                             4.6265874172682E+00
 ::: BIELET ZONE E-E                               5.1895470056808E+02
 ::: TOTAL E-E                                     1.4381556735946E+02
 ::: TOTAL E-N + N-E                              -9.5301566147311E+02
 ::: TOTAL N-N                                    -6.9143564143617E+01
 ::: KINETIC ENERGY                                4.5489655778339E+02
 ::: PSEUDO TOTAL   ENERGY                        -4.2344710047388E+02
 ::: VIRIAL COEFFICIENT                            1.0358054128516E+00
 TTTTTTTTTTTTTTTTTTTTTTTTTTTTTT MONMO3      TELAPSE       31.18 TCPU       24.43
 NUMERICALLY INTEGRATED DENSITY     60.0000027991
 TTTTTTTTTTTTTTTTTTTTTTTTTTTTTT NUMDFT      TELAPSE       31.62 TCPU       24.87
 CYC   7 ETOT(AU) -4.577970360711E+02 DETOT  2.32E-09 tst  6.53E-11 PX  4.80E-05

 == SCF ENDED - CONVERGENCE ON ENERGY      E(AU) -4.5779703607107E+02 CYCLES   7


 ENERGY EXPRESSION=HARTREE+FOCK EXCH*0.00000+(HSE-3c     EXCH)*1.00000+PBEh-3c    CORR


 TOTAL ENERGY(DFT)(AU)(  7) -4.5779703607107E+02 DE 2.3E-09 tester 6.5E-11
 TTTTTTTTTTTTTTTTTTTTTTTTTTTTTT EDFT        TELAPSE       31.62 TCPU       24.87
 
 INFORMATION **** DFTD3 ENERGY **** CALCULATE DFTD3 ENERGY

           DFT-D V3(BJ)
 DF                                         hse3c     
 parameters
 s6       :    1.0000
 s8       :    0.0000
 a1       :    0.4411
 a2       :    4.5182
 k1 k3    :   16.0000   -4.0000
 Cutoff   :   50.2022
 CN-Cutoff:   21.1671
 
 Edisp /kcal,au:    -9.2897 -0.01480411

 E6    /kcal :    -9.8054
 E8    /kcal :     0.0000
 E6(ABC) "   :   0.515701
 
 INFORMATION **** DFTD3 ENERGY **** NORMAL TERMINATION OF DFTD3 MODULE

 GCP ENERGY CALCULATION
  level           hse3c               basis:hse3c
  Nbf            114
  Atoms           18

  Parameters: 
  sigma     1.0000
  eta       1.4086
  alpha     0.2908
  beta      1.9526

  dmp_scal      4.0000
  dmp_exp       6.0000
 cutoffs: 
   distance [bohr] 60.0
   noise    [a.u.] 2.2E-16
 SR-damping   T
 ** gCP correction **
  Egcp:        0.0790139138 / (a.u.) ||      49.5820 / (kcal/mol)
 INFORMATION **** GCP **** NORMAL TERMINATION OF GCP MODULE

 *******************************************************************************

 DFT-D3-GCP DISPERSION AND COUNTERPOISE CORRECTION

 D3 DISPERSION ENERGY (AU)      -1.4804112685223E-02
 GCP ENERGY (AU)                 7.9013913752229E-02
 TOTAL ENERGY + DISP + GCP (AU) -4.5773282627001E+02

 *******************************************************************************

 EIGENVECTORS IN FORTRAN UNIT 10
 TTTTTTTTTTTTTTTTTTTTTTTTTTTTTT END         TELAPSE       32.05 TCPU       25.28
 EEEEEEEEEE TERMINATION  DATE 25 03 2019 TIME 22:22:59.8
NODE    0 CPU TIME =        25.275
NODE    1 CPU TIME =        31.551
NODE    2 CPU TIME =        30.015
NODE    3 CPU TIME =        31.301
NODE    4 CPU TIME =        29.191
NODE    5 CPU TIME =        29.781
NODE    6 CPU TIME =        28.463
NODE    7 CPU TIME =        30.823
    TOTAL CPU TIME =       236.399
