 PROCESS            3  OF            8  WORKING
 PROCESS            6  OF            8  WORKING
 PROCESS            2  OF            8  WORKING
 PROCESS            4  OF            8  WORKING
 PROCESS            0  OF            8  WORKING

         
 *******************************************************************************
 *                                                                             *
 *                               CRYSTAL17                                     *
 *                      public : 1.0.1 - Feb 1st, 2017                         *
 *                       HTTP://WWW.CRYSTAL.UNITO.IT                           *
 *                                                                             *
 *                              MAIN AUTHORS                                   *
 *                                                                             *
 *  R. DOVESI(1,11), V.R. SAUNDERS(2), C. ROETTI(1,11), R. ORLANDO(1,11),      *
 *  C.M. ZICOVICH-WILSON(1,3), F. PASCALE(4), B. CIVALLERI(1,11),              *
 *  K. DOLL(5), N.M. HARRISON(2,6), I.J. BUSH(7), Ph. D'ARCO(8),               *
 *  M. LLUNELL(9), M. CAUSA'(10), Y. NOEL(8), L. MASCHIO(1,11), A. ERBA(1,11)  *
 *  M. RE'RAT(14), S. CASASSA(1,11)                                            *
 *                                                                             *
 *        CONTRIBUTIONS TO THE CODE HAVE ALSO BEEN GIVEN BY                    *
 *                                                                             *
 *  M. FERRABONE(1,11), M. DE LA PIERRE(1,11), M. FERRERO(1,11),               *
 *  J. BAIMA(1,11), E. ALBANESE(1,11), M.F. PEINTINGER(12), R. BAST(13),       *
 *  B. KIRTMAN(15), V. LACIVITA(1,11), R. DEMICHELIS(1,16)                     *
 *  G. BRANDEBURG(17), S. SALUSTRO(1,11), G. SANSONE(1,11)                     *
 *  M.T. RUGGIERO(18)                                                          *
 *                                                                             *
 * (1) THEORETICAL CHEMISTRY GROUP - UNIVERSITA' DI TORINO - TORINO (ITALY)    *

 * (2) COMPUTATIONAL SCIENCE & ENGINEERING DEPARTMENT - STFC DARESBURY (UK)    *
 * (3) UNIVERSIDAD AUTONOMA DEL ESTADO DE MORELOS - CUERNAVACA (MEXICO)        *
 * (4) UNIVERSITE' DE LORRAINE - NANCY (FRANCE)                                *
 * (5) UNIVERSITAET STUTTGART- STUTTGART (GERMANY)                             *
 * (6) IMPERIAL COLLEGE - LONDON (UK)                                          *
 * (7) OXFORD E-RESEARCH CENTRE - OXFORD (UK)                                  *
 * (8) UPMC - SORBONNE UNIVERSITES - PARIS (FRANCE)                            *
 * (9) UNIVERSIDAD DE BARCELONA - BARCELONA (SPAIN)                            *
 *(10) UNIVERSITA' DI NAPOLI "FEDERICO II" - NAPOLI (ITALY)                    *
 *(11) NIS - NANOSTRUCTURED INTERFACES AND SURFACES - TORINO (ITALY)           *
 *(12) MPI FUER CHEMISCHE ENERGIEKONVERSION - MUELHEIM AN DER RUHR (GERMANY)   *
 *(13) UNIVERSITY OF TROMSO - TROMSO (NORWAY)                                  *
 *(14) UNIVERSITE' DE PAU ET DES PAYS DE L'ADOUR - PAU (FRANCE)                *
 *(15) UNIVERSITY OF CALIFORNIA SANTA BARBARA - SANTA BARBARA (USA)            *
 *(16) CURTIN UNIVERSITY - PERTH (AUSTRALIA)                                   *
 *(17) UNIVERSITY COLLEGE LONDON - LONDON (UK)                                 *
 *(18) CAMBRIDGE UNIVERSITY - CAMBRIDGE (UK)                                   *
 *                                                                             *
 *******************************************************************************
 EEEEEEEEEE STARTING  DATE 25 03 2019 TIME 17:50:33.4
 PROCESS            1  OF            8  WORKING
 !drive by JGB                                                                   
 PROCESS            7  OF            8  WORKING
 PROCESS            5  OF            8  WORKING

 CRYSTAL CALCULATION
 (INPUT ACCORDING TO THE INTERNATIONAL TABLES FOR X-RAY CRYSTALLOGRAPHY)
 CRYSTAL FAMILY                       :  ORTHORHOMBIC
 CRYSTAL CLASS  (GROTH - 1921)        :  ORTHORHOMBIC DISPHENOIDAL            

 SPACE GROUP (NONCENTROSYMMETRIC)     :  P 21 21 2       

 LATTICE PARAMETERS  (ANGSTROMS AND DEGREES) - CONVENTIONAL CELL
        A           B           C        ALPHA        BETA       GAMMA
     8.51534     8.56446     8.46453    90.00000    90.00000    90.00000


 NUMBER OF IRREDUCIBLE ATOMS IN THE CONVENTIONAL CELL:   12

 INPUT COORDINATES

 ATOM AT. N.              COORDINATES
   1   8     8.505461415185E-01  6.652447627872E-01  9.172354055023E-01
   2   8     1.567996638768E-01  3.340422141843E-01  5.917523294718E-01
   3   8     8.310443603022E-01  3.501328060122E-01  5.912668210167E-01
   4   8     1.670926591690E-01  6.493018883682E-01  9.125460111364E-01
   5   1     9.652955348076E-01  6.741061873570E-01  9.293068953619E-01
   6   1     8.295271431881E-01  5.528549371537E-01  9.301591347109E-01
   7   1     1.666666666667E-01  3.186729027322E-01  7.062317753043E-01
   8   1     1.745904775129E-01  4.467240872809E-01  5.770473443885E-01
   9   1     7.684364785701E-01  2.821092904476E-01  5.212867887423E-01
  10   1     9.421353521986E-01  3.272098389001E-01  5.738761102214E-01
  11   1     2.381666828442E-01  7.180704898484E-01  9.730816251190E-01
  12   1     1.861280067955E-01  6.653202529795E-01  7.994925059913E-01

 *******************************************************************************

 << INFORMATION >>: FROM NOW ON, ALL COORDINATES REFER TO THE PRIMITIVE CELL

 *******************************************************************************

 LATTICE PARAMETERS  (ANGSTROMS AND DEGREES) - PRIMITIVE CELL
       A          B          C        ALPHA      BETA     GAMMA        VOLUME
    8.51534    8.56446    8.46453    90.00000  90.00000  90.00000    617.312606

 COORDINATES OF THE EQUIVALENT ATOMS (FRACTIONAL UNITS)

 N. ATOM EQUIV AT. N.          X                  Y                  Z

   1   1   1    8 O    -1.49453858481E-01 -3.34755237213E-01 -8.27645944977E-02
   2   1   2    8 O     1.49453858481E-01  3.34755237213E-01 -8.27645944977E-02
   3   1   3    8 O     3.50546141519E-01 -1.65244762787E-01  8.27645944977E-02
   4   1   4    8 O    -3.50546141519E-01  1.65244762787E-01  8.27645944977E-02

   5   2   1    8 O     1.56799663877E-01  3.34042214184E-01 -4.08247670528E-01
   6   2   2    8 O    -1.56799663877E-01 -3.34042214184E-01 -4.08247670528E-01
   7   2   3    8 O    -3.43200336123E-01  1.65957785816E-01  4.08247670528E-01
   8   2   4    8 O     3.43200336123E-01 -1.65957785816E-01  4.08247670528E-01

   9   3   1    8 O    -1.68955639698E-01  3.50132806012E-01 -4.08733178983E-01
  10   3   2    8 O     1.68955639698E-01 -3.50132806012E-01 -4.08733178983E-01
  11   3   3    8 O     3.31044360302E-01  1.49867193988E-01  4.08733178983E-01
  12   3   4    8 O    -3.31044360302E-01 -1.49867193988E-01  4.08733178983E-01

  13   4   1    8 O     1.67092659169E-01 -3.50698111632E-01 -8.74539888636E-02
  14   4   2    8 O    -1.67092659169E-01  3.50698111632E-01 -8.74539888636E-02
  15   4   3    8 O    -3.32907340831E-01 -1.49301888368E-01  8.74539888636E-02
  16   4   4    8 O     3.32907340831E-01  1.49301888368E-01  8.74539888636E-02

  17   5   1    1 H    -3.47044651924E-02 -3.25893812643E-01 -7.06931046381E-02
  18   5   2    1 H     3.47044651924E-02  3.25893812643E-01 -7.06931046381E-02
  19   5   3    1 H     4.65295534808E-01 -1.74106187357E-01  7.06931046381E-02
  20   5   4    1 H    -4.65295534808E-01  1.74106187357E-01  7.06931046381E-02

  21   6   1    1 H    -1.70472856812E-01 -4.47145062846E-01 -6.98408652891E-02
  22   6   2    1 H     1.70472856812E-01  4.47145062846E-01 -6.98408652891E-02
  23   6   3    1 H     3.29527143188E-01 -5.28549371537E-02  6.98408652891E-02
  24   6   4    1 H    -3.29527143188E-01  5.28549371537E-02  6.98408652891E-02

  25   7   1    1 H     1.66666666667E-01  3.18672902732E-01 -2.93768224696E-01
  26   7   2    1 H    -1.66666666667E-01 -3.18672902732E-01 -2.93768224696E-01
  27   7   3    1 H    -3.33333333333E-01  1.81327097268E-01  2.93768224696E-01
  28   7   4    1 H     3.33333333333E-01 -1.81327097268E-01  2.93768224696E-01

  29   8   1    1 H     1.74590477513E-01  4.46724087281E-01 -4.22952655611E-01
  30   8   2    1 H    -1.74590477513E-01 -4.46724087281E-01 -4.22952655611E-01
  31   8   3    1 H    -3.25409522487E-01  5.32759127191E-02  4.22952655611E-01
  32   8   4    1 H     3.25409522487E-01 -5.32759127191E-02  4.22952655611E-01

  33   9   1    1 H    -2.31563521430E-01  2.82109290448E-01 -4.78713211258E-01
  34   9   2    1 H     2.31563521430E-01 -2.82109290448E-01 -4.78713211258E-01
  35   9   3    1 H     2.68436478570E-01  2.17890709552E-01  4.78713211258E-01
  36   9   4    1 H    -2.68436478570E-01 -2.17890709552E-01  4.78713211258E-01

  37  10   1    1 H    -5.78646478014E-02  3.27209838900E-01 -4.26123889779E-01
  38  10   2    1 H     5.78646478014E-02 -3.27209838900E-01 -4.26123889779E-01
  39  10   3    1 H     4.42135352199E-01  1.72790161100E-01  4.26123889779E-01
  40  10   4    1 H    -4.42135352199E-01 -1.72790161100E-01  4.26123889779E-01

  41  11   1    1 H     2.38166682844E-01 -2.81929510152E-01 -2.69183748810E-02
  42  11   2    1 H    -2.38166682844E-01  2.81929510152E-01 -2.69183748810E-02
  43  11   3    1 H    -2.61833317156E-01 -2.18070489848E-01  2.69183748810E-02
  44  11   4    1 H     2.61833317156E-01  2.18070489848E-01  2.69183748810E-02

  45  12   1    1 H     1.86128006796E-01 -3.34679747020E-01 -2.00507494009E-01
  46  12   2    1 H    -1.86128006796E-01  3.34679747020E-01 -2.00507494009E-01
  47  12   3    1 H    -3.13871993204E-01 -1.65320252980E-01  2.00507494009E-01
  48  12   4    1 H     3.13871993204E-01  1.65320252979E-01  2.00507494009E-01

 NUMBER OF SYMMETRY OPERATORS         :    4
 *******************************************************************************
 * GEOMETRY EDITING - INPUT COORDINATES ARE GIVEN IN ANGSTROM         
 *******************************************************************************

 GEOMETRY NOW FULLY CONSISTENT WITH THE GROUP

 GCALCO - MAX INDICES DIRECT LATTICE VECTOR    15    14    15
 NO.OF VECTORS CREATED 6999 STARS 1048 RMAX   190.89396 BOHR

 GEOMETRY FOR WAVE FUNCTION - DIMENSIONALITY OF THE SYSTEM    3
 (NON PERIODIC DIRECTION: LATTICE PARAMETER FORMALLY SET TO 500)
 *******************************************************************************
 LATTICE PARAMETERS (ANGSTROMS AND DEGREES) - BOHR = 0.5291772083 ANGSTROM
 PRIMITIVE CELL - CENTRING CODE 1/0 VOLUME=   617.312606 - DENSITY  0.775 g/cm^3
         A              B              C           ALPHA      BETA       GAMMA 
     8.51534426     8.56445977     8.46453221    90.000000  90.000000  90.000000
 *******************************************************************************
 ATOMS IN THE ASYMMETRIC UNIT   12 - ATOMS IN THE UNIT CELL:   48
     ATOM                 X/A                 Y/B                 Z/C    
 *******************************************************************************
      1 T   8 O    -1.494538584815E-01 -3.347552372128E-01 -8.276459449773E-02
      2 F   8 O     1.494538584815E-01  3.347552372128E-01 -8.276459449773E-02
      3 F   8 O     3.505461415185E-01 -1.652447627872E-01  8.276459449773E-02
      4 F   8 O    -3.505461415185E-01  1.652447627872E-01  8.276459449773E-02
      5 T   8 O     1.567996638768E-01  3.340422141843E-01 -4.082476705282E-01
      6 F   8 O    -1.567996638768E-01 -3.340422141843E-01 -4.082476705282E-01
      7 F   8 O    -3.432003361232E-01  1.659577858157E-01  4.082476705282E-01
      8 F   8 O     3.432003361232E-01 -1.659577858157E-01  4.082476705282E-01
      9 T   8 O    -1.689556396978E-01  3.501328060122E-01 -4.087331789833E-01
     10 F   8 O     1.689556396978E-01 -3.501328060122E-01 -4.087331789833E-01
     11 F   8 O     3.310443603022E-01  1.498671939878E-01  4.087331789833E-01
     12 F   8 O    -3.310443603022E-01 -1.498671939878E-01  4.087331789833E-01
     13 T   8 O     1.670926591690E-01 -3.506981116318E-01 -8.745398886357E-02
     14 F   8 O    -1.670926591690E-01  3.506981116318E-01 -8.745398886357E-02
     15 F   8 O    -3.329073408310E-01 -1.493018883682E-01  8.745398886357E-02
     16 F   8 O     3.329073408310E-01  1.493018883682E-01  8.745398886357E-02
     17 T   1 H    -3.470446519235E-02 -3.258938126430E-01 -7.069310463807E-02
     18 F   1 H     3.470446519235E-02  3.258938126430E-01 -7.069310463807E-02
     19 F   1 H     4.652955348076E-01 -1.741061873570E-01  7.069310463807E-02
     20 F   1 H    -4.652955348077E-01  1.741061873570E-01  7.069310463807E-02
     21 T   1 H    -1.704728568119E-01 -4.471450628463E-01 -6.984086528907E-02
     22 F   1 H     1.704728568119E-01  4.471450628463E-01 -6.984086528907E-02
     23 F   1 H     3.295271431881E-01 -5.285493715370E-02  6.984086528907E-02
     24 F   1 H    -3.295271431881E-01  5.285493715370E-02  6.984086528907E-02
     25 T   1 H     1.666666666667E-01  3.186729027322E-01 -2.937682246957E-01
     26 F   1 H    -1.666666666667E-01 -3.186729027322E-01 -2.937682246957E-01
     27 F   1 H    -3.333333333333E-01  1.813270972678E-01  2.937682246957E-01
     28 F   1 H     3.333333333333E-01 -1.813270972678E-01  2.937682246957E-01
     29 T   1 H     1.745904775129E-01  4.467240872809E-01 -4.229526556115E-01
     30 F   1 H    -1.745904775129E-01 -4.467240872809E-01 -4.229526556115E-01
     31 F   1 H    -3.254095224871E-01  5.327591271910E-02  4.229526556115E-01
     32 F   1 H     3.254095224871E-01 -5.327591271910E-02  4.229526556115E-01
     33 T   1 H    -2.315635214299E-01  2.821092904476E-01 -4.787132112577E-01
     34 F   1 H     2.315635214299E-01 -2.821092904476E-01 -4.787132112577E-01
     35 F   1 H     2.684364785701E-01  2.178907095524E-01  4.787132112577E-01
     36 F   1 H    -2.684364785701E-01 -2.178907095524E-01  4.787132112577E-01
     37 T   1 H    -5.786464780144E-02  3.272098389001E-01 -4.261238897786E-01
     38 F   1 H     5.786464780144E-02 -3.272098389001E-01 -4.261238897786E-01
     39 F   1 H     4.421353521986E-01  1.727901610999E-01  4.261238897786E-01
     40 F   1 H    -4.421353521986E-01 -1.727901610999E-01  4.261238897786E-01
     41 T   1 H     2.381666828442E-01 -2.819295101516E-01 -2.691837488099E-02
     42 F   1 H    -2.381666828442E-01  2.819295101516E-01 -2.691837488099E-02
     43 F   1 H    -2.618333171558E-01 -2.180704898484E-01  2.691837488099E-02
     44 F   1 H     2.618333171558E-01  2.180704898484E-01  2.691837488099E-02
     45 T   1 H     1.861280067955E-01 -3.346797470205E-01 -2.005074940087E-01
     46 F   1 H    -1.861280067955E-01  3.346797470205E-01 -2.005074940087E-01
     47 F   1 H    -3.138719932045E-01 -1.653202529795E-01  2.005074940087E-01
     48 F   1 H     3.138719932045E-01  1.653202529795E-01  2.005074940087E-01

 T = ATOM BELONGING TO THE ASYMMETRIC UNIT

 ****    4 SYMMOPS - TRANSLATORS IN FRACTIONAL UNITS
 **** MATRICES AND TRANSLATORS IN THE CRYSTALLOGRAPHIC REFERENCE FRAME
   V INV                    ROTATION MATRICES                   TRANSLATORS
   1   1  1.00  0.00  0.00  0.00  1.00  0.00  0.00  0.00  1.00  0.00  0.00  0.00
   2   2 -1.00  0.00  0.00  0.00 -1.00  0.00  0.00  0.00  1.00  0.00  0.00  0.00
   3   3  1.00  0.00  0.00  0.00 -1.00  0.00  0.00  0.00 -1.00  0.50  0.50  0.00
   4   4 -1.00  0.00  0.00  0.00  1.00  0.00  0.00  0.00 -1.00  0.50  0.50  0.00

 DIRECT LATTICE VECTORS CARTESIAN COMPONENTS (ANGSTROM)
          X                    Y                    Z
   0.851534426000E+01   0.000000000000E+00   0.000000000000E+00
   0.000000000000E+00   0.856445977000E+01   0.000000000000E+00
   0.000000000000E+00   0.000000000000E+00   0.846453221000E+01


 CARTESIAN COORDINATES - PRIMITIVE CELL
 *******************************************************************************
 *      ATOM          X(ANGSTROM)         Y(ANGSTROM)         Z(ANGSTROM)
 *******************************************************************************
    1     8 O    -1.272651055955E+00 -2.866997761906E+00 -7.005635759736E-01
    2     8 O     1.272651055955E+00  2.866997761906E+00 -7.005635759736E-01
    3     8 O     2.985021074045E+00 -1.415232123094E+00  7.005635759736E-01
    4     8 O    -2.985021074045E+00  1.415232123094E+00  7.005635759736E-01
    5     8 O     1.335203117763E+00  2.860891104863E+00 -3.455625556843E+00
    6     8 O    -1.335203117763E+00 -2.860891104863E+00 -3.455625556843E+00
    7     8 O    -2.922469012237E+00  1.421338780137E+00  3.455625556843E+00
    8     8 O     2.922469012237E+00 -1.421338780137E+00  3.455625556843E+00
    9     8 O    -1.438715436695E+00  2.998698331249E+00 -3.459735158800E+00
   10     8 O     1.438715436695E+00 -2.998698331249E+00 -3.459735158800E+00
   11     8 O     2.818956693305E+00  1.283531553751E+00  3.459735158800E+00
   12     8 O    -2.818956693305E+00 -1.283531553751E+00  3.459735158800E+00
   13     8 O     1.422851516143E+00 -3.003539868486E+00 -7.402571056287E-01
   14     8 O    -1.422851516143E+00  3.003539868486E+00 -7.402571056287E-01
   15     8 O    -2.834820613857E+00 -1.278690016514E+00  7.402571056287E-01
   16     8 O     2.834820613857E+00  1.278690016514E+00  7.402571056287E-01
   17     1 H    -2.955204684720E-01 -2.791104447673E+00 -5.983840612338E-01
   18     1 H     2.955204684720E-01  2.791104447673E+00 -5.983840612338E-01
   19     1 H     3.962151661528E+00 -1.491125437327E+00  5.983840612338E-01
   20     1 H    -3.962151661528E+00  1.491125437327E+00  5.983840612338E-01
   21     1 H    -1.451635062739E+00 -3.829555902101E+00 -5.911702538136E-01
   22     1 H     1.451635062739E+00  3.829555902101E+00 -5.911702538136E-01
   23     1 H     2.806037067261E+00 -4.526739828987E-01  5.911702538136E-01
   24     1 H    -2.806037067261E+00  4.526739828987E-01  5.911702538136E-01
   25     1 H     1.419224043333E+00  2.729261255239E+00 -2.486610600211E+00
   26     1 H    -1.419224043333E+00 -2.729261255239E+00 -2.486610600211E+00
   27     1 H    -2.838448086667E+00  1.552968629761E+00  2.486610600211E+00
   28     1 H     2.838448086667E+00 -1.552968629761E+00  2.486610600211E+00
   29     1 H     1.486698020540E+00  3.825950473807E+00 -3.580096376729E+00
   30     1 H    -1.486698020540E+00 -3.825950473807E+00 -3.580096376729E+00
   31     1 H    -2.770974109460E+00  4.562794111928E-01  3.580096376729E+00
   32     1 H     2.770974109460E+00 -4.562794111928E-01  3.580096376729E+00
   33     1 H    -1.971843103033E+00  2.416113668782E+00 -4.052083396043E+00
   34     1 H     1.971843103033E+00 -2.416113668782E+00 -4.052083396043E+00
   35     1 H     2.285829026967E+00  1.866116216218E+00  4.052083396043E+00
   36     1 H    -2.285829026967E+00 -1.866116216218E+00  4.052083396043E+00
   37     1 H    -4.927373965129E-01  2.802375501608E+00 -3.606939390481E+00
   38     1 H     4.927373965129E-01 -2.802375501608E+00 -3.606939390481E+00
   39     1 H     3.764934733487E+00  1.479854383392E+00  3.606939390481E+00
   40     1 H    -3.764934733487E+00 -1.479854383392E+00  3.606939390481E+00
   41     1 H     2.028071295681E+00 -2.414573947669E+00 -2.278514512210E-01
   42     1 H    -2.028071295681E+00  2.414573947669E+00 -2.278514512210E-01
   43     1 H    -2.229600834319E+00 -1.867655937331E+00  2.278514512210E-01
   44     1 H     2.229600834319E+00  1.867655937331E+00  2.278514512210E-01
   45     1 H     1.584944054291E+00 -2.866351229191E+00 -1.697202141383E+00
   46     1 H    -1.584944054291E+00  2.866351229191E+00 -1.697202141383E+00
   47     1 H    -2.672728075709E+00 -1.415878655809E+00  1.697202141383E+00
   48     1 H     2.672728075709E+00  1.415878655809E+00  1.697202141383E+00

 *******************************************************************************
 STARTING BASIS SET HANDLING 
 *******************************************************************************

 Loading internal basis set: DEF2-MSVP           

 Please cite in your publication:
 Fully Optimized Contracted Gaussian Basis Sets for Atoms Li to Kr. A. Schäfer, 
 H. Horn and R. Ahlrichs; J. Chem. Phys. 97, 2571 (1992).                       
                                                                                
                    
 S. Grimme, J. G. Brandenburg, C. Bannwarth, and A. Hansen, J. Chem. Phys., 143,
  054107 (2015).                                                                
                                                                                
                    

 *******************************************************************************
 LOCAL ATOMIC FUNCTIONS BASIS SET
 *******************************************************************************
   ATOM   X(AU)   Y(AU)   Z(AU)  N. TYPE  EXPONENT  S COEF   P COEF   D/F/G COEF
 *******************************************************************************
   1 O   -2.405  -5.418  -1.324
                                  1 S  
                                         6.773E+03 1.727E-03 0.000E+00 0.000E+00
                                         1.017E+03 1.325E-02 0.000E+00 0.000E+00
                                         2.313E+02 6.603E-02 0.000E+00 0.000E+00
                                         6.501E+01 2.353E-01 0.000E+00 0.000E+00
                                         2.050E+01 5.498E-01 0.000E+00 0.000E+00
                                  2 S  
                                         6.716E+00 1.000E+00 0.000E+00 0.000E+00
                                  3 S  
                                         1.147E+00 1.000E+00 0.000E+00 0.000E+00
                                  4 S  
                                         3.342E-01 1.000E+00 0.000E+00 0.000E+00
                           5-     7 P  
                                         1.769E+01 0.000E+00 4.359E-02 0.000E+00
                                         3.854E+00 0.000E+00 2.318E-01 0.000E+00
                                         1.047E+00 0.000E+00 5.146E-01 0.000E+00
                           8-    10 P  
                                         2.759E-01 0.000E+00 1.000E+00 0.000E+00
                          11-    15 D  
                                         8.000E-01 0.000E+00 0.000E+00 1.000E+00
   2 O    2.405   5.418  -1.324
   3 O    5.641  -2.674   1.324
   4 O   -5.641   2.674   1.324
   5 O    2.523   5.406  -6.530
   6 O   -2.523  -5.406  -6.530
   7 O   -5.523   2.686   6.530
   8 O    5.523  -2.686   6.530
   9 O   -2.719   5.667  -6.538
  10 O    2.719  -5.667  -6.538
  11 O    5.327   2.426   6.538
  12 O   -5.327  -2.426   6.538
  13 O    2.689  -5.676  -1.399
  14 O   -2.689   5.676  -1.399
  15 O   -5.357  -2.416   1.399
  16 O    5.357   2.416   1.399
  17 H   -0.558  -5.274  -1.131
                                241 S  
                                         1.874E+01 1.968E-02 0.000E+00 0.000E+00
                                         2.826E+00 1.380E-01 0.000E+00 0.000E+00
                                         6.401E-01 4.783E-01 0.000E+00 0.000E+00
                                242 S  
                                         1.756E-01 1.000E+00 0.000E+00 0.000E+00
  18 H    0.558   5.274  -1.131
  19 H    7.487  -2.818   1.131
  20 H   -7.487   2.818   1.131
  21 H   -2.743  -7.237  -1.117
  22 H    2.743   7.237  -1.117
  23 H    5.303  -0.855   1.117
  24 H   -5.303   0.855   1.117
  25 H    2.682   5.158  -4.699
  26 H   -2.682  -5.158  -4.699
  27 H   -5.364   2.935   4.699
  28 H    5.364  -2.935   4.699
  29 H    2.809   7.230  -6.765
  30 H   -2.809  -7.230  -6.765
  31 H   -5.236   0.862   6.765
  32 H    5.236  -0.862   6.765
  33 H   -3.726   4.566  -7.657
  34 H    3.726  -4.566  -7.657
  35 H    4.320   3.526   7.657
  36 H   -4.320  -3.526   7.657
  37 H   -0.931   5.296  -6.816
  38 H    0.931  -5.296  -6.816
  39 H    7.115   2.797   6.816
  40 H   -7.115  -2.797   6.816
  41 H    3.832  -4.563  -0.431
  42 H   -3.832   4.563  -0.431
  43 H   -4.213  -3.529   0.431
  44 H    4.213   3.529   0.431
  45 H    2.995  -5.417  -3.207
  46 H   -2.995   5.417  -3.207
  47 H   -5.051  -2.676   3.207
  48 H    5.051   2.676   3.207

 *******************************************************************************
 FINISHED BASIS SET HANDLING 
 *******************************************************************************

 INFORMATION **** SET_MPP **** PCRYSTAL CALCULATION
 INFORMATION **** READM2 **** NEW DEFAULT: FOCK/KS MATRIX MIXING SET TO 30 %
 INFORMATION **** READM2 **** NEW DEFAULT: FULL DIRECT SCF MODE
 INFORMATION **** READM2 **** NEW DEFAULT: COULOMB BIPOLAR BUFFER SET TO 32 Mb
 INFORMATION **** READM2 **** NEW DEFAULT: EXCHANGE BIPOLAR BUFFER SET TO 32 Mb

 *******************************************************************************
 NEW DEFAULT: DFT INTEGRATION GRID INCREASED TO XLGRID
 NEW DEFAULT: DIIS ACCELERATOR ACTIVE
 USE KEYWORD NODIIS TO TURN IT OFF
 *******************************************************************************

 INFORMATION **** RDDFTP **** HSE-3c calculation
 INFORMATION **** RDDFTP **** HSE screened hybrid functional combined with D3 and gCP

PLEASE CITE:
(1) HSE-3c Reference
 J. G. Brandenburg, E. Caldeweyer, and S. Grimme, 
 Phys. Chem. Chem. Phys. 18, 15519 (2016)
(2) DFT-D3 Reference
 S. Grimme, J. Antony, S. Ehrlich,
 and H. Krieg, J. Chem. Phys. 132, 154104 (2010)
(3) gCP Reference
 H. Kruse and S. Grimme J. Chem. Phys, 136, 154101 (2012)
 J. G. Brandenburg, M. Alessio, B. Civalleri, M. F. Peintinger
 T. Bredow, and S. Grimme, J. Phys. Chem. A, 117, 9282 (2013) 

 WARNING **** RDDFTP **** HSE3c-HJS ACTIVE
 RANGE SEPARATION - OMEGA:   0.110000000000000     
 WARNING **** RDDFTP **** HSE-3c has to be combined with def2-mSVP basis set
 WARNING **** RDDFTP **** Note: Harmonic frequencies are scaled by 0.95
 WARNING **** RDDFTP **** as recommended in original publication
 INFORMATION **** BIPOSIZE **** COULOMB BIPOLAR BUFFER SET TO    60000000
 INFORMATION **** EXCHSIZE **** EXCHANGE BIPOLAR BUFFER SIZE SET TO    40000000
 *******************************************************************************
 N. OF ATOMS PER CELL        48  COULOMB OVERLAP TOL         (T1) 10**   -6
 NUMBER OF SHELLS           176  COULOMB PENETRATION TOL     (T2) 10**   -6
 NUMBER OF AO               304  EXCHANGE OVERLAP TOL        (T3) 10**   -6
 N. OF ELECTRONS PER CELL   160  EXCHANGE PSEUDO OVP (F(G))  (T4) 10**   -6
 CORE ELECTRONS PER CELL     32  EXCHANGE PSEUDO OVP (P(G))  (T5) 10**  -12
 N. OF SYMMETRY OPERATORS     4  POLE ORDER IN MONO ZONE                  4
 *******************************************************************************
 TYPE OF CALCULATION :  RESTRICTED CLOSED SHELL
 KOHN-SHAM HAMILTONIAN

 (EXCHANGE)[CORRELATION] FUNCTIONAL:(HSE-3c)[PBEh-3c]

 RANGE-SEPARATED HYBRID FUNCTIONAL 
 OMEGA (SHORT-RANGE)[LONG-RANGE]:(    0.1100)[    0.0000]

 HYBRID EXCHANGE - PERCENTAGE OF FOCK EXCHANGE    42.0000

 CAPPA:IS1  2;IS2  2;IS3  2; K PTS MONK NET   8; SYMMOPS:K SPACE   8;G SPACE   4

 *******************************************************************************
 MAX NUMBER OF SCF CYCLES      50  CONVERGENCE ON DELTAP        10**-16
 WEIGHT OF F(I) IN F(I+1)      30% CONVERGENCE ON ENERGY        10**- 6
 S(K) EIGENV. THRESHOLD  10*10.**-4
 SHRINK. FACT.(MONKH.)    2  2  2  NUMBER OF K POINTS IN THE IBZ      8
 SHRINKING FACTOR(GILAT NET)    2  NUMBER OF K POINTS(GILAT NET)      8
 *******************************************************************************
 *** K POINTS COORDINATES (OBLIQUE COORDINATES IN UNITS OF IS =  2)
   1-R(  0  0  0)   2-R(  1  0  0)   3-R(  0  1  0)   4-R(  1  1  0)
   5-R(  0  0  1)   6-R(  1  0  1)   7-R(  0  1  1)   8-R(  1  1  1)

 DIRECT LATTICE VECTORS COMPON. (A.U.)     RECIP. LATTICE VECTORS COMPON. (A.U.) 
        X            Y            Z              X            Y            Z
   16.0916686    0.0000000    0.0000000      0.3904620    0.0000000    0.0000000
    0.0000000   16.1844835    0.0000000      0.0000000    0.3882228    0.0000000
    0.0000000    0.0000000   15.9956477      0.0000000    0.0000000    0.3928059

 DISK SPACE FOR EIGENVECTORS (FTN 10)      739328 REALS

 SYMMETRY ADAPTION OF THE BLOCH FUNCTIONS ENABLED
 TTTTTTTTTTTTTTTTTTTTTTTTTTTTTT gordsh1     TELAPSE        0.10 TCPU        0.04

 MATRIX SIZE: P(G)  116548, F(G)   21702, P(G) IRR   14971, F(G) IRR    5615
 MAX G-VECTOR INDEX FOR 1- AND 2-ELECTRON INTEGRALS  27

 TTTTTTTTTTTTTTTTTTTTTTTTTTTTTT INPUT       TELAPSE        0.11 TCPU        0.05

 NEIGHBORS OF THE NON-EQUIVALENT ATOMS

 N = NUMBER OF NEIGHBORS AT DISTANCE R
    ATOM  N     R/ANG      R/AU   NEIGHBORS (ATOM LABELS AND CELL INDICES)
   1 O    1     0.9851     1.8617   21 H    0 0 0
   1 O    1     0.9854     1.8621   17 H    0 0 0
   1 O    1     1.6663     3.1488   43 H    0 0 0
   1 O    1     1.7973     3.3965   26 H    0 0 0
   1 O    1     2.6531     5.0137   15 O    0 0 0
   1 O    1     2.6984     5.0992   14 O    0-1 0

   5 O    1     0.9815     1.8548   25 H    0 0 0
   5 O    1     0.9848     1.8610   29 H    0 0 0
   5 O    1     1.6759     3.1671   35 H    0 0-1
   5 O    1     1.8351     3.4679   37 H    0 0 0
   5 O    1     2.6626     5.0316   11 O    0 0-1
   5 O    1     2.7069     5.1152   10 O    0 1 0

   9 O    1     0.9773     1.8468   37 H    0 0 0
   9 O    1     0.9872     1.8655   33 H    0 0 0
   9 O    1     1.7446     3.2969   30 H    0 1 0
   9 O    1     1.7735     3.3515   46 H    0 0 0
   9 O    1     2.6626     5.0316    7 O    0 0-1
   9 O    1     2.7069     5.1152    6 O    0 1 0

  13 O    1     0.9802     1.8524   45 H    0 0 0
  13 O    1     0.9878     1.8667   41 H    0 0 0
  13 O    1     1.7373     3.2829   17 H    0 0 0
  13 O    1     1.7380     3.2844   22 H    0-1 0
  13 O    1     2.6531     5.0137    3 O    0 0 0
  13 O    1     2.6984     5.0992    2 O    0-1 0

  17 H    1     0.9854     1.8621    1 O    0 0 0
  17 H    1     1.5540     2.9367   21 H    0 0 0
  17 H    1     1.7373     3.2829   13 O    0 0 0
  17 H    1     2.1793     4.1182   45 H    0 0 0
  17 H    1     2.1982     4.1539   26 H    0 0 0
  17 H    1     2.2970     4.3407   43 H    0 0 0

  21 H    1     0.9851     1.8617    1 O    0 0 0
  21 H    1     1.5540     2.9367   17 H    0 0 0
  21 H    1     1.7380     3.2844   14 O    0-1 0
  21 H    1     2.1754     4.1110   46 H    0-1 0
  21 H    1     2.1919     4.1421   26 H    0 0 0
  21 H    1     2.2639     4.2781   43 H    0 0 0

  25 H    1     0.9815     1.8548    5 O    0 0 0
  25 H    1     1.5502     2.9294   29 H    0 0 0
  25 H    1     1.7973     3.3965    2 O    0 0 0
  25 H    1     2.1919     4.1421   22 H    0 0 0
  25 H    1     2.1982     4.1539   18 H    0 0 0
  25 H    1     2.2172     4.1899   37 H    0 0 0

  29 H    1     0.9848     1.8610    5 O    0 0 0
  29 H    1     1.5502     2.9294   25 H    0 0 0
  29 H    1     1.7446     3.2969   10 O    0 1 0
  29 H    1     2.1765     4.1130   38 H    0 1 0
  29 H    1     2.2286     4.2114   37 H    0 0 0
  29 H    1     2.2743     4.2978   35 H    0 0-1

  33 H    1     0.9872     1.8655    9 O    0 0 0
  33 H    1     1.5922     3.0088   37 H    0 0 0
  33 H    1     1.6759     3.1671    7 O    0 0-1
  33 H    1     2.2743     4.2978   31 H    0 0-1
  33 H    1     2.2814     4.3113   27 H    0 0-1
  33 H    1     2.4190     4.5713   30 H    0 1 0

  37 H    1     0.9773     1.8468    9 O    0 0 0
  37 H    1     1.5922     3.0088   33 H    0 0 0
  37 H    1     1.8351     3.4679    5 O    0 0 0
  37 H    1     2.1765     4.1130   30 H    0 1 0
  37 H    1     2.2009     4.1592   46 H    0 0 0
  37 H    1     2.2172     4.1899   25 H    0 0 0

  41 H    1     0.9878     1.8667   13 O    0 0 0
  41 H    1     1.5998     3.0232   45 H    0 0 0
  41 H    1     1.6663     3.1488    3 O    0 0 0
  41 H    1     2.2639     4.2781   23 H    0 0 0
  41 H    1     2.2970     4.3407   19 H    0 0 0
  41 H    1     2.3829     4.5030   17 H    0 0 0

  45 H    1     0.9802     1.8524   13 O    0 0 0
  45 H    1     1.5998     3.0232   41 H    0 0 0
  45 H    1     1.7735     3.3515   10 O    0 0 0
  45 H    1     2.1754     4.1110   22 H    0-1 0
  45 H    1     2.1793     4.1182   17 H    0 0 0
  45 H    1     2.2009     4.1592   38 H    0 0 0


 SYMMETRY ALLOWED INTERNAL DEGREE(S) OF FREEDOM:  36
 TTTTTTTTTTTTTTTTTTTTTTTTTTTTTT SYMM        TELAPSE        0.13 TCPU        0.06
 TTTTTTTTTTTTTTTTTTTTTTTTTTTTTT INT_SCREEN  TELAPSE        0.13 TCPU        0.07

 DFT PARAMETERS

     ATOM       ELECTRONS   NET CHARGE   R(ANGSTROM)
   1   8  O       8.0000      0.0000     0.74000000
  17   1  H       1.0000      0.0000     1.11000000

 SIZE OF GRID=     308846
 TTTTTTTTTTTTTTTTTTTTTTTTTTTTTT MAKE_GRID2  TELAPSE        2.42 TCPU        2.35
 BECKE WEIGHT FUNCTION
 RADSAFE =     2.00
 TOLERANCES - DENSITY:10**- 6; POTENTIAL:10**- 9; GRID WGT:10**-14

 RADIAL INTEGRATION  - INTERVALS (POINTS,UPPER LIMIT):            1( 75,  4.0*R)

 ANGULAR INTEGRATION - INTERVALS (ACCURACY LEVEL [N. POINTS] UPPER LIMIT):
  1(  4[  86]   0.2)  2(  8[ 194]   0.5)  3( 12[ 350]   0.9)  4( 16[ 974]   3.5)
  5( 12[ 350]9999.0)
 TTTTTTTTTTTTTTTTTTTTTTTTTTTTTT INT_CALC    TELAPSE        2.44 TCPU        2.37
 EEEEEEEEEE INT_CALC TERMINATION  DATE 25 03 2019 TIME 17:50:35.8

 *******************************************************************************
 !drive by JGB                                                                   
 CRYSTAL - SCF - TYPE OF CALCULATION :  RESTRICTED CLOSED SHELL
 *******************************************************************************

 CAPPA:IS1  2;IS2  2;IS3  2; K PTS MONK NET   8; SYMMOPS:K SPACE   8;G SPACE   4

 TTTTTTTTTTTTTTTTTTTTTTTTTTTTTT SDIK        TELAPSE        2.63 TCPU        2.53

 AAAAAAAAAAAAAAAAAAAAAAAAAAAAAAAAAAAAAAAAAAAAAAAAAAAAAAAAAAAAAAAAAAAAAAAAAAAAAAA
         ATOMIC WAVEFUNCTION(S)


 NUCLEAR CHARGE  8.0  SYMMETRY SPECIES            S    P
 N. ELECTRONS    8.0  NUMBER OF PRIMITIVE GTOS    8    4
                      NUMBER OF CONTRACTED GTOS   4    2
                      NUMBER OF CLOSED SHELLS     2    0
                      OPEN SHELL OCCUPATION       0    4

  ZNUC SCFIT  TOTAL HF ENERGY   KINETIC ENERGY   VIRIAL THEOREM ACCURACY
   8.0  12   -7.477373220E+01  7.477365593E+01 -2.000001020E+00  3.8E-06

 NUCLEAR CHARGE  1.0  SYMMETRY SPECIES            S
 N. ELECTRONS    1.0  NUMBER OF PRIMITIVE GTOS    4
                      NUMBER OF CONTRACTED GTOS   2
                      NUMBER OF CLOSED SHELLS     0
                      OPEN SHELL OCCUPATION       1

  ZNUC SCFIT  TOTAL HF ENERGY   KINETIC ENERGY   VIRIAL THEOREM ACCURACY
   1.0   1   -4.977266687E-01  5.190767460E-01 -1.958869132E+00  1.8E-16

 AAAAAAAAAAAAAAAAAAAAAAAAAAAAAAAAAAAAAAAAAAAAAAAAAAAAAAAAAAAAAAAAAAAAAAAAAAAAAAA

 CHARGE NORMALIZATION FACTOR   1.00000000
 TOTAL ATOMIC CHARGES:
   8.0000000   8.0000000   8.0000000   8.0000000   8.0000000   8.0000000
   8.0000000   8.0000000   8.0000000   8.0000000   8.0000000   8.0000000
   8.0000000   8.0000000   8.0000000   8.0000000   1.0000000   1.0000000
   1.0000000   1.0000000   1.0000000   1.0000000   1.0000000   1.0000000
   1.0000000   1.0000000   1.0000000   1.0000000   1.0000000   1.0000000
   1.0000000   1.0000000   1.0000000   1.0000000   1.0000000   1.0000000
   1.0000000   1.0000000   1.0000000   1.0000000   1.0000000   1.0000000
   1.0000000   1.0000000   1.0000000   1.0000000   1.0000000   1.0000000
 TTTTTTTTTTTTTTTTTTTTTTTTTTTTTT MOQGAD      TELAPSE        2.64 TCPU        2.54
 TTTTTTTTTTTTTTTTTTTTTTTTTTTTTT SHELLXN     TELAPSE        5.50 TCPU        5.40
 TTTTTTTTTTTTTTTTTTTTTTTTTTTTTT MONMO3      TELAPSE        5.68 TCPU        5.58
 NUMERICALLY INTEGRATED DENSITY    159.9999895698
 TTTTTTTTTTTTTTTTTTTTTTTTTTTTTT NUMDFT      TELAPSE        6.08 TCPU        5.98
 CYC   0 ETOT(AU) -1.221188634349E+03 DETOT -1.22E+03 tst  0.00E+00 PX  1.00E+00
 TTTTTTTTTTTTTTTTTTTTTTTTTTTTTT DIIS        TELAPSE        6.09 TCPU        5.98
 TTTTTTTTTTTTTTTTTTTTTTTTTTTTTT FDIK        TELAPSE        6.20 TCPU        6.03
 INSULATING STATE
 TOP OF VALENCE BANDS -    BAND     80; K    1; EIG -4.1423260E-01 AU
 BOTTOM OF VIRTUAL BANDS - BAND     81; K    1; EIG -3.1284736E-02 AU
 DIRECT ENERGY BAND GAP:  10.4205 eV
 TTTTTTTTTTTTTTTTTTTTTTTTTTTTTT PDIG        TELAPSE        6.21 TCPU        6.04
 CHARGE NORMALIZATION FACTOR   1.00000000
 TOTAL ATOMIC CHARGES:
   9.0649672   9.0649672   9.0649672   9.0649672   9.0632119   9.0632119
   9.0632119   9.0632119   9.0776579   9.0776579   9.0776579   9.0776579
   9.0799292   9.0799292   9.0799292   9.0799292   0.4661908   0.4661908
   0.4661908   0.4661908   0.4661376   0.4661376   0.4661376   0.4661376
   0.4686280   0.4686280   0.4686280   0.4686280   0.4664344   0.4664344
   0.4664344   0.4664344   0.4560281   0.4560281   0.4560281   0.4560281
   0.4687457   0.4687457   0.4687457   0.4687457   0.4557543   0.4557543
   0.4557543   0.4557543   0.4663151   0.4663151   0.4663151   0.4663151
 TTTTTTTTTTTTTTTTTTTTTTTTTTTTTT MOQGAD      TELAPSE        6.21 TCPU        6.04
 TTTTTTTTTTTTTTTTTTTTTTTTTTTTTT SHELLXN     TELAPSE        9.17 TCPU        8.99
 TTTTTTTTTTTTTTTTTTTTTTTTTTTTTT MONMO3      TELAPSE        9.33 TCPU        9.16
 NUMERICALLY INTEGRATED DENSITY    159.9999863895
 TTTTTTTTTTTTTTTTTTTTTTTTTTTTTT NUMDFT      TELAPSE       10.12 TCPU        9.95
 CYC   1 ETOT(AU) -1.220328497258E+03 DETOT  8.60E-01 tst  0.00E+00 PX  1.00E+00
 TTTTTTTTTTTTTTTTTTTTTTTTTTTTTT DIIS        TELAPSE       10.13 TCPU        9.96
 DIIS TEST: 0.16266E+01 AT SCF   CYCLE   1 - MIX   30 %
 TTTTTTTTTTTTTTTTTTTTTTTTTTTTTT FDIK        TELAPSE       10.15 TCPU        9.97
 INSULATING STATE
 TOP OF VALENCE BANDS -    BAND     80; K    1; EIG -3.0963952E-01 AU
 BOTTOM OF VIRTUAL BANDS - BAND     81; K    1; EIG  3.8129231E-02 AU
 DIRECT ENERGY BAND GAP:   9.4633 eV
 TTTTTTTTTTTTTTTTTTTTTTTTTTTTTT PDIG        TELAPSE       10.16 TCPU        9.98
 CHARGE NORMALIZATION FACTOR   1.00000000
 TOTAL ATOMIC CHARGES:
   8.8592508   8.8592508   8.8592508   8.8592508   8.8530496   8.8530496
   8.8530496   8.8530496   8.8603512   8.8603512   8.8603512   8.8603512
   8.8674349   8.8674349   8.8674349   8.8674349   0.5719937   0.5719937
   0.5719937   0.5719937   0.5715027   0.5715027   0.5715027   0.5715027
   0.5770079   0.5770079   0.5770079   0.5770079   0.5724277   0.5724277
   0.5724277   0.5724277   0.5547680   0.5547680   0.5547680   0.5547680
   0.5827110   0.5827110   0.5827110   0.5827110   0.5525939   0.5525939
   0.5525939   0.5525939   0.5769084   0.5769084   0.5769084   0.5769084
 TTTTTTTTTTTTTTTTTTTTTTTTTTTTTT MOQGAD      TELAPSE       10.17 TCPU        9.98
 TTTTTTTTTTTTTTTTTTTTTTTTTTTTTT SHELLXN     TELAPSE       13.07 TCPU       12.89
 TTTTTTTTTTTTTTTTTTTTTTTTTTTTTT MONMO3      TELAPSE       13.24 TCPU       13.06
 NUMERICALLY INTEGRATED DENSITY    159.9999874589
 TTTTTTTTTTTTTTTTTTTTTTTTTTTTTT NUMDFT      TELAPSE       14.06 TCPU       13.88
 CYC   2 ETOT(AU) -1.220665301103E+03 DETOT -3.37E-01 tst  2.80E-03 PX  1.21E-01
 TTTTTTTTTTTTTTTTTTTTTTTTTTTTTT DIIS        TELAPSE       14.08 TCPU       13.89
 DIIS TEST: 0.34949E+00 AT SCF   CYCLE   2 - DIIS ACTIVE - HISTORY:     2 CYCLES
 TTTTTTTTTTTTTTTTTTTTTTTTTTTTTT FDIK        TELAPSE       14.11 TCPU       13.91
 INSULATING STATE
 TOP OF VALENCE BANDS -    BAND     80; K    1; EIG -3.5275580E-01 AU
 BOTTOM OF VIRTUAL BANDS - BAND     81; K    1; EIG  3.7226752E-02 AU
 DIRECT ENERGY BAND GAP:  10.6120 eV
 TTTTTTTTTTTTTTTTTTTTTTTTTTTTTT PDIG        TELAPSE       14.12 TCPU       13.91
 CHARGE NORMALIZATION FACTOR   1.00000000
 TOTAL ATOMIC CHARGES:
   8.9299351   8.9299351   8.9299351   8.9299351   8.9249885   8.9249885
   8.9249885   8.9249885   8.9341580   8.9341580   8.9341580   8.9341580
   8.9396390   8.9396390   8.9396390   8.9396390   0.5361192   0.5361192
   0.5361192   0.5361192   0.5357827   0.5357827   0.5357827   0.5357827
   0.5405846   0.5405846   0.5405846   0.5405846   0.5361731   0.5361731
   0.5361731   0.5361731   0.5198421   0.5198421   0.5198421   0.5198421
   0.5448521   0.5448521   0.5448521   0.5448521   0.5180497   0.5180497
   0.5180497   0.5180497   0.5398759   0.5398759   0.5398759   0.5398759
 TTTTTTTTTTTTTTTTTTTTTTTTTTTTTT MOQGAD      TELAPSE       14.12 TCPU       13.92
 TTTTTTTTTTTTTTTTTTTTTTTTTTTTTT SHELLXN     TELAPSE       16.99 TCPU       16.78
 TTTTTTTTTTTTTTTTTTTTTTTTTTTTTT MONMO3      TELAPSE       17.15 TCPU       16.94
 NUMERICALLY INTEGRATED DENSITY    159.9999871012
 TTTTTTTTTTTTTTTTTTTTTTTTTTTTTT NUMDFT      TELAPSE       17.88 TCPU       17.67
 CYC   3 ETOT(AU) -1.220755748083E+03 DETOT -9.04E-02 tst  2.44E-04 PX  4.31E-02
 TTTTTTTTTTTTTTTTTTTTTTTTTTTTTT DIIS        TELAPSE       17.89 TCPU       17.68
 DIIS TEST: 0.11614E-02 AT SCF   CYCLE   3 - DIIS ACTIVE - HISTORY:     3 CYCLES
 TTTTTTTTTTTTTTTTTTTTTTTTTTTTTT FDIK        TELAPSE       17.91 TCPU       17.69
 INSULATING STATE
 TOP OF VALENCE BANDS -    BAND     80; K    1; EIG -3.5084664E-01 AU
 BOTTOM OF VIRTUAL BANDS - BAND     81; K    1; EIG  3.9654992E-02 AU
 DIRECT ENERGY BAND GAP:  10.6261 eV
 TTTTTTTTTTTTTTTTTTTTTTTTTTTTTT PDIG        TELAPSE       17.91 TCPU       17.70
 CHARGE NORMALIZATION FACTOR   1.00000000
 TOTAL ATOMIC CHARGES:
   8.9289979   8.9289979   8.9289979   8.9289979   8.9227945   8.9227945
   8.9227945   8.9227945   8.9312916   8.9312916   8.9312916   8.9312916
   8.9377426   8.9377426   8.9377426   8.9377426   0.5367980   0.5367980
   0.5367980   0.5367980   0.5363946   0.5363946   0.5363946   0.5363946
   0.5415602   0.5415602   0.5415602   0.5415602   0.5373542   0.5373542
   0.5373542   0.5373542   0.5210395   0.5210395   0.5210395   0.5210395
   0.5462388   0.5462388   0.5462388   0.5462388   0.5188474   0.5188474
   0.5188474   0.5188474   0.5409406   0.5409406   0.5409406   0.5409406
 TTTTTTTTTTTTTTTTTTTTTTTTTTTTTT MOQGAD      TELAPSE       17.92 TCPU       17.70
 TTTTTTTTTTTTTTTTTTTTTTTTTTTTTT SHELLXN     TELAPSE       20.79 TCPU       20.58
 TTTTTTTTTTTTTTTTTTTTTTTTTTTTTT MONMO3      TELAPSE       20.96 TCPU       20.74
 NUMERICALLY INTEGRATED DENSITY    159.9999870932
 TTTTTTTTTTTTTTTTTTTTTTTTTTTTTT NUMDFT      TELAPSE       21.71 TCPU       21.49
 CYC   4 ETOT(AU) -1.220755944539E+03 DETOT -1.96E-04 tst  8.45E-07 PX  1.68E-03
 TTTTTTTTTTTTTTTTTTTTTTTTTTTTTT DIIS        TELAPSE       21.71 TCPU       21.50
 DIIS TEST: 0.29564E-04 AT SCF   CYCLE   4 - DIIS ACTIVE - HISTORY:     4 CYCLES
 TTTTTTTTTTTTTTTTTTTTTTTTTTTTTT FDIK        TELAPSE       21.73 TCPU       21.51
 INSULATING STATE
 TOP OF VALENCE BANDS -    BAND     80; K    1; EIG -3.5066107E-01 AU
 BOTTOM OF VIRTUAL BANDS - BAND     81; K    1; EIG  3.9843479E-02 AU
 DIRECT ENERGY BAND GAP:  10.6262 eV
 TTTTTTTTTTTTTTTTTTTTTTTTTTTTTT PDIG        TELAPSE       21.74 TCPU       21.52
 CHARGE NORMALIZATION FACTOR   1.00000000
 TOTAL ATOMIC CHARGES:
   8.9279789   8.9279789   8.9279789   8.9279789   8.9230417   8.9230417
   8.9230417   8.9230417   8.9322774   8.9322774   8.9322774   8.9322774
   8.9378574   8.9378574   8.9378574   8.9378574   0.5371250   0.5371250
   0.5371250   0.5371250   0.5367332   0.5367332   0.5367332   0.5367332
   0.5415542   0.5415542   0.5415542   0.5415542   0.5371821   0.5371821
   0.5371821   0.5371821   0.5205781   0.5205781   0.5205781   0.5205781
   0.5459485   0.5459485   0.5459485   0.5459485   0.5187916   0.5187916
   0.5187916   0.5187916   0.5409319   0.5409319   0.5409319   0.5409319
 TTTTTTTTTTTTTTTTTTTTTTTTTTTTTT MOQGAD      TELAPSE       21.75 TCPU       21.52
 TTTTTTTTTTTTTTTTTTTTTTTTTTTTTT SHELLXN     TELAPSE       24.61 TCPU       24.39
 TTTTTTTTTTTTTTTTTTTTTTTTTTTTTT MONMO3      TELAPSE       24.78 TCPU       24.56
 NUMERICALLY INTEGRATED DENSITY    159.9999871030
 TTTTTTTTTTTTTTTTTTTTTTTTTTTTTT NUMDFT      TELAPSE       25.55 TCPU       25.33
 CYC   5 ETOT(AU) -1.220755948668E+03 DETOT -4.13E-06 tst  5.71E-08 PX  5.74E-04
 TTTTTTTTTTTTTTTTTTTTTTTTTTTTTT DIIS        TELAPSE       25.56 TCPU       25.34
 DIIS TEST: 0.85480E-05 AT SCF   CYCLE   5 - DIIS ACTIVE - HISTORY:     5 CYCLES
 TTTTTTTTTTTTTTTTTTTTTTTTTTTTTT FDIK        TELAPSE       25.58 TCPU       25.35
 INSULATING STATE
 TOP OF VALENCE BANDS -    BAND     80; K    1; EIG -3.5077776E-01 AU
 BOTTOM OF VIRTUAL BANDS - BAND     81; K    1; EIG  3.9862953E-02 AU
 DIRECT ENERGY BAND GAP:  10.6299 eV
 TTTTTTTTTTTTTTTTTTTTTTTTTTTTTT PDIG        TELAPSE       25.58 TCPU       25.36
 CHARGE NORMALIZATION FACTOR   1.00000000
 TOTAL ATOMIC CHARGES:
   8.9286987   8.9286987   8.9286987   8.9286987   8.9229348   8.9229348
   8.9229348   8.9229348   8.9316529   8.9316529   8.9316529   8.9316529
   8.9377502   8.9377502   8.9377502   8.9377502   0.5369168   0.5369168
   0.5369168   0.5369168   0.5365203   0.5365203   0.5365203   0.5365203
   0.5415416   0.5415416   0.5415416   0.5415416   0.5372860   0.5372860
   0.5372860   0.5372860   0.5207963   0.5207963   0.5207963   0.5207963
   0.5461595   0.5461595   0.5461595   0.5461595   0.5187635   0.5187635
   0.5187635   0.5187635   0.5409794   0.5409794   0.5409794   0.5409794
 TTTTTTTTTTTTTTTTTTTTTTTTTTTTTT MOQGAD      TELAPSE       25.59 TCPU       25.36
 TTTTTTTTTTTTTTTTTTTTTTTTTTTTTT SHELLXN     TELAPSE       28.45 TCPU       28.22
 TTTTTTTTTTTTTTTTTTTTTTTTTTTTTT MONMO3      TELAPSE       28.62 TCPU       28.39
 NUMERICALLY INTEGRATED DENSITY    159.9999870943
 TTTTTTTTTTTTTTTTTTTTTTTTTTTTTT NUMDFT      TELAPSE       29.40 TCPU       29.17
 CYC   6 ETOT(AU) -1.220755950466E+03 DETOT -1.80E-06 tst  1.02E-08 PX  3.75E-04
 TTTTTTTTTTTTTTTTTTTTTTTTTTTTTT DIIS        TELAPSE       29.41 TCPU       29.18
 DIIS TEST: 0.86233E-06 AT SCF   CYCLE   6 - DIIS ACTIVE - HISTORY:     6 CYCLES
 TTTTTTTTTTTTTTTTTTTTTTTTTTTTTT FDIK        TELAPSE       29.42 TCPU       29.19
 INSULATING STATE
 TOP OF VALENCE BANDS -    BAND     80; K    1; EIG -3.5073604E-01 AU
 BOTTOM OF VIRTUAL BANDS - BAND     81; K    1; EIG  3.9870241E-02 AU
 DIRECT ENERGY BAND GAP:  10.6289 eV
 TTTTTTTTTTTTTTTTTTTTTTTTTTTTTT PDIG        TELAPSE       29.43 TCPU       29.20
 CHARGE NORMALIZATION FACTOR   1.00000000
 TOTAL ATOMIC CHARGES:
   8.9284797   8.9284797   8.9284797   8.9284797   8.9228818   8.9228818
   8.9228818   8.9228818   8.9317465   8.9317465   8.9317465   8.9317465
   8.9378041   8.9378041   8.9378041   8.9378041   0.5369765   0.5369765
   0.5369765   0.5369765   0.5365814   0.5365814   0.5365814   0.5365814
   0.5415772   0.5415772   0.5415772   0.5415772   0.5372933   0.5372933
   0.5372933   0.5372933   0.5207795   0.5207795   0.5207795   0.5207795
   0.5461360   0.5461360   0.5461360   0.5461360   0.5187804   0.5187804
   0.5187804   0.5187804   0.5409637   0.5409637   0.5409637   0.5409637
 TTTTTTTTTTTTTTTTTTTTTTTTTTTTTT MOQGAD      TELAPSE       29.43 TCPU       29.20
 TTTTTTTTTTTTTTTTTTTTTTTTTTTTTT SHELLXN     TELAPSE       32.30 TCPU       32.06
 TTTTTTTTTTTTTTTTTTTTTTTTTTTTTT MONMO3      TELAPSE       32.47 TCPU       32.23
 NUMERICALLY INTEGRATED DENSITY    159.9999870961
 TTTTTTTTTTTTTTTTTTTTTTTTTTTTTT NUMDFT      TELAPSE       33.22 TCPU       32.98
 CYC   7 ETOT(AU) -1.220755950612E+03 DETOT -1.46E-07 tst  9.67E-10 PX  9.91E-05
 TTTTTTTTTTTTTTTTTTTTTTTTTTTTTT DIIS        TELAPSE       33.23 TCPU       32.99
 DIIS TEST: 0.40682E-07 AT SCF   CYCLE   7 - DIIS ACTIVE - HISTORY:     7 CYCLES
 TTTTTTTTTTTTTTTTTTTTTTTTTTTTTT FDIK        TELAPSE       33.25 TCPU       33.01
 INSULATING STATE
 TOP OF VALENCE BANDS -    BAND     80; K    1; EIG -3.5074352E-01 AU
 BOTTOM OF VIRTUAL BANDS - BAND     81; K    1; EIG  3.9868921E-02 AU
 DIRECT ENERGY BAND GAP:  10.6291 eV
 TTTTTTTTTTTTTTTTTTTTTTTTTTTTTT PDIG        TELAPSE       33.25 TCPU       33.01
 CHARGE NORMALIZATION FACTOR   1.00000000
 TOTAL ATOMIC CHARGES:
   8.9285040   8.9285040   8.9285040   8.9285040   8.9229138   8.9229138
   8.9229138   8.9229138   8.9317484   8.9317484   8.9317484   8.9317484
   8.9377368   8.9377368   8.9377368   8.9377368   0.5369795   0.5369795
   0.5369795   0.5369795   0.5365844   0.5365844   0.5365844   0.5365844
   0.5415664   0.5415664   0.5415664   0.5415664   0.5372839   0.5372839
   0.5372839   0.5372839   0.5207709   0.5207709   0.5207709   0.5207709
   0.5461338   0.5461338   0.5461338   0.5461338   0.5187926   0.5187926
   0.5187926   0.5187926   0.5409854   0.5409854   0.5409854   0.5409854
 TTTTTTTTTTTTTTTTTTTTTTTTTTTTTT MOQGAD      TELAPSE       33.26 TCPU       33.02
 TTTTTTTTTTTTTTTTTTTTTTTTTTTTTT SHELLXN     TELAPSE       36.12 TCPU       35.88
 +++ ENERGIES IN A.U. +++
 ::: EXT EL-POLE                                  -9.2232540871222E+02
 ::: EXT EL-SPHEROPOLE                             1.0169984992959E+01
 ::: BIELET ZONE E-E                               1.3463401769074E+03
 ::: TOTAL E-E                                     4.3418475318814E+02
 ::: TOTAL E-N + N-E                              -2.6467892275482E+03
 ::: TOTAL N-N                                    -1.2961002534130E+02
 ::: KINETIC ENERGY                                1.2130236023887E+03
 ::: PSEUDO TOTAL   ENERGY                        -1.1291908973126E+03
 ::: VIRIAL COEFFICIENT                            1.0357920698923E+00
 TTTTTTTTTTTTTTTTTTTTTTTTTTTTTT MONMO3      TELAPSE       36.29 TCPU       36.05
 NUMERICALLY INTEGRATED DENSITY    159.9999870958
 TTTTTTTTTTTTTTTTTTTTTTTTTTTTTT NUMDFT      TELAPSE       37.05 TCPU       36.81
 CYC   8 ETOT(AU) -1.220755950646E+03 DETOT -3.41E-08 tst  8.72E-11 PX  9.91E-05

 == SCF ENDED - CONVERGENCE ON ENERGY      E(AU) -1.2207559506462E+03 CYCLES   8


 ENERGY EXPRESSION=HARTREE+FOCK EXCH*0.00000+(HSE-3c     EXCH)*1.00000+PBEh-3c    CORR


 TOTAL ENERGY(DFT)(AU)(  8) -1.2207559506462E+03 DE-3.4E-08 tester 8.7E-11
 TTTTTTTTTTTTTTTTTTTTTTTTTTTTTT EDFT        TELAPSE       37.05 TCPU       36.81
 
 INFORMATION **** DFTD3 ENERGY **** CALCULATE DFTD3 ENERGY

           DFT-D V3(BJ)
 DF                                         hse3c     
 parameters
 s6       :    1.0000
 s8       :    0.0000
 a1       :    0.4411
 a2       :    4.5182
 k1 k3    :   16.0000   -4.0000
 Cutoff   :   50.2022
 CN-Cutoff:   21.1671
 
 Edisp /kcal,au:   -22.0820 -0.03518984

 E6    /kcal :   -22.9535
 E8    /kcal :     0.0000
 E6(ABC) "   :   0.871504
 
 INFORMATION **** DFTD3 ENERGY **** NORMAL TERMINATION OF DFTD3 MODULE

 GCP ENERGY CALCULATION
  level           hse3c               basis:hse3c
  Nbf            304
  Atoms           48

  Parameters: 
  sigma     1.0000
  eta       1.4086
  alpha     0.2908
  beta      1.9526

  dmp_scal      4.0000
  dmp_exp       6.0000
 cutoffs: 
   distance [bohr] 60.0
   noise    [a.u.] 2.2E-16
 SR-damping   T
 ** gCP correction **
  Egcp:        0.2063679667 / (a.u.) ||     129.4979 / (kcal/mol)
 INFORMATION **** GCP **** NORMAL TERMINATION OF GCP MODULE

 *******************************************************************************

 DFT-D3-GCP DISPERSION AND COUNTERPOISE CORRECTION

 D3 DISPERSION ENERGY (AU)      -3.5189839007176E-02
 GCP ENERGY (AU)                 2.0636796667548E-01
 TOTAL ENERGY + DISP + GCP (AU) -1.2205847725185E+03

 *******************************************************************************

 EIGENVECTORS IN FORTRAN UNIT  8
 TTTTTTTTTTTTTTTTTTTTTTTTTTTTTT END         TELAPSE       38.01 TCPU       37.58
 EEEEEEEEEE TERMINATION  DATE 25 03 2019 TIME 17:51:11.3
NODE    0 CPU TIME =        37.582
NODE    1 CPU TIME =        37.777
NODE    2 CPU TIME =        37.805
NODE    3 CPU TIME =        37.752
NODE    4 CPU TIME =        37.791
NODE    5 CPU TIME =        37.760
NODE    6 CPU TIME =        37.800
NODE    7 CPU TIME =        37.797
    TOTAL CPU TIME =       302.063
