 PROCESS            2  OF            8  WORKING
 PROCESS            0  OF            8  WORKING
 PROCESS            1  OF            8  WORKING
 PROCESS            5  OF            8  WORKING
 PROCESS            7  OF            8  WORKING
 PROCESS            3  OF            8  WORKING
 PROCESS            6  OF            8  WORKING
 PROCESS            4  OF            8  WORKING

         
 *******************************************************************************
 *                                                                             *
 *                               CRYSTAL17                                     *
 *                      public : 1.0.1 - Feb 1st, 2017                         *
 *                       HTTP://WWW.CRYSTAL.UNITO.IT                           *
 *                                                                             *
 *                              MAIN AUTHORS                                   *
 *                                                                             *
 *  R. DOVESI(1,11), V.R. SAUNDERS(2), C. ROETTI(1,11), R. ORLANDO(1,11),      *
 *  C.M. ZICOVICH-WILSON(1,3), F. PASCALE(4), B. CIVALLERI(1,11),              *
 *  K. DOLL(5), N.M. HARRISON(2,6), I.J. BUSH(7), Ph. D'ARCO(8),               *
 *  M. LLUNELL(9), M. CAUSA'(10), Y. NOEL(8), L. MASCHIO(1,11), A. ERBA(1,11)  *
 *  M. RE'RAT(14), S. CASASSA(1,11)                                            *
 *                                                                             *
 *        CONTRIBUTIONS TO THE CODE HAVE ALSO BEEN GIVEN BY                    *
 *                                                                             *
 *  M. FERRABONE(1,11), M. DE LA PIERRE(1,11), M. FERRERO(1,11),               *
 *  J. BAIMA(1,11), E. ALBANESE(1,11), M.F. PEINTINGER(12), R. BAST(13),       *
 *  B. KIRTMAN(15), V. LACIVITA(1,11), R. DEMICHELIS(1,16)                     *
 *  G. BRANDEBURG(17), S. SALUSTRO(1,11), G. SANSONE(1,11)                     *
 *  M.T. RUGGIERO(18)                                                          *
 *                                                                             *
 * (1) THEORETICAL CHEMISTRY GROUP - UNIVERSITA' DI TORINO - TORINO (ITALY)    *

 * (2) COMPUTATIONAL SCIENCE & ENGINEERING DEPARTMENT - STFC DARESBURY (UK)    *
 * (3) UNIVERSIDAD AUTONOMA DEL ESTADO DE MORELOS - CUERNAVACA (MEXICO)        *
 * (4) UNIVERSITE' DE LORRAINE - NANCY (FRANCE)                                *
 * (5) UNIVERSITAET STUTTGART- STUTTGART (GERMANY)                             *
 * (6) IMPERIAL COLLEGE - LONDON (UK)                                          *
 * (7) OXFORD E-RESEARCH CENTRE - OXFORD (UK)                                  *
 * (8) UPMC - SORBONNE UNIVERSITES - PARIS (FRANCE)                            *
 * (9) UNIVERSIDAD DE BARCELONA - BARCELONA (SPAIN)                            *
 *(10) UNIVERSITA' DI NAPOLI "FEDERICO II" - NAPOLI (ITALY)                    *
 *(11) NIS - NANOSTRUCTURED INTERFACES AND SURFACES - TORINO (ITALY)           *
 *(12) MPI FUER CHEMISCHE ENERGIEKONVERSION - MUELHEIM AN DER RUHR (GERMANY)   *
 *(13) UNIVERSITY OF TROMSO - TROMSO (NORWAY)                                  *
 *(14) UNIVERSITE' DE PAU ET DES PAYS DE L'ADOUR - PAU (FRANCE)                *
 *(15) UNIVERSITY OF CALIFORNIA SANTA BARBARA - SANTA BARBARA (USA)            *
 *(16) CURTIN UNIVERSITY - PERTH (AUSTRALIA)                                   *
 *(17) UNIVERSITY COLLEGE LONDON - LONDON (UK)                                 *
 *(18) CAMBRIDGE UNIVERSITY - CAMBRIDGE (UK)                                   *
 *                                                                             *
 *******************************************************************************
 EEEEEEEEEE STARTING  DATE 25 03 2019 TIME 22:20:27.8
 !drive by JGB                                                                   

 CRYSTAL CALCULATION
 (INPUT ACCORDING TO THE INTERNATIONAL TABLES FOR X-RAY CRYSTALLOGRAPHY)
 CRYSTAL FAMILY                       :  TETRAGONAL  
 CRYSTAL CLASS  (GROTH - 1921)        :  DITETRAGONAL DIPYRAMIDAL             

 SPACE GROUP (CENTROSYMMETRIC)        :  P 42/M N M      

 LATTICE PARAMETERS  (ANGSTROMS AND DEGREES) - CONVENTIONAL CELL
        A           B           C        ALPHA        BETA       GAMMA
     7.53713     7.53713     4.36350    90.00000    90.00000    90.00000


 NUMBER OF IRREDUCIBLE ATOMS IN THE CONVENTIONAL CELL:    4

 INPUT COORDINATES

 ATOM AT. N.              COORDINATES
   1   8     1.809610996884E-01  8.190389003116E-01  0.000000000000E+00
   2   8     1.742660328557E-01  1.742660328557E-01  0.000000000000E+00
   3   1     2.357494615269E-01  7.642505384731E-01  1.825627725454E-01
   4   1     4.416127024998E-02  1.907072611582E-01  0.000000000000E+00

 *******************************************************************************

 << INFORMATION >>: FROM NOW ON, ALL COORDINATES REFER TO THE PRIMITIVE CELL

 *******************************************************************************

 LATTICE PARAMETERS  (ANGSTROMS AND DEGREES) - PRIMITIVE CELL
       A          B          C        ALPHA      BETA     GAMMA        VOLUME
    7.53713    7.53713    4.36350    90.00000  90.00000  90.00000    247.882923

 COORDINATES OF THE EQUIVALENT ATOMS (FRACTIONAL UNITS)

 N. ATOM EQUIV AT. N.          X                  Y                  Z

   1   1   1    8 O     1.80961099688E-01 -1.80961099688E-01  0.00000000000E+00
   2   1   2    8 O    -1.80961099688E-01  1.80961099688E-01  0.00000000000E+00
   3   1   3    8 O    -3.19038900312E-01 -3.19038900312E-01 -5.00000000000E-01
   4   1   4    8 O     3.19038900312E-01  3.19038900312E-01 -5.00000000000E-01

   5   2   1    8 O     1.74266032856E-01  1.74266032856E-01  0.00000000000E+00
   6   2   2    8 O    -1.74266032856E-01 -1.74266032856E-01  0.00000000000E+00
   7   2   3    8 O    -3.25733967144E-01  3.25733967144E-01 -5.00000000000E-01
   8   2   4    8 O     3.25733967144E-01 -3.25733967144E-01 -5.00000000000E-01

   9   3   1    1 H     2.35749461527E-01 -2.35749461527E-01  1.82562772545E-01
  10   3   2    1 H    -2.35749461527E-01  2.35749461527E-01  1.82562772545E-01
  11   3   3    1 H    -2.64250538473E-01 -2.64250538473E-01  3.17437227455E-01
  12   3   4    1 H     2.64250538473E-01  2.64250538473E-01  3.17437227455E-01
  13   3   5    1 H     2.35749461527E-01 -2.35749461527E-01 -1.82562772545E-01
  14   3   6    1 H    -2.35749461527E-01  2.35749461527E-01 -1.82562772545E-01
  15   3   7    1 H     2.64250538473E-01  2.64250538473E-01 -3.17437227455E-01
  16   3   8    1 H    -2.64250538473E-01 -2.64250538473E-01 -3.17437227455E-01

  17   4   1    1 H     4.41612702500E-02  1.90707261158E-01  0.00000000000E+00
  18   4   2    1 H    -4.41612702500E-02 -1.90707261158E-01  0.00000000000E+00
  19   4   3    1 H    -4.55838729750E-01  3.09292738842E-01 -5.00000000000E-01
  20   4   4    1 H     4.55838729750E-01 -3.09292738842E-01 -5.00000000000E-01
  21   4   5    1 H    -1.90707261158E-01 -4.41612702500E-02  0.00000000000E+00
  22   4   6    1 H     1.90707261158E-01  4.41612702500E-02  0.00000000000E+00
  23   4   7    1 H    -3.09292738842E-01  4.55838729750E-01 -5.00000000000E-01
  24   4   8    1 H     3.09292738842E-01 -4.55838729750E-01 -5.00000000000E-01

 NUMBER OF SYMMETRY OPERATORS         :   16
 *******************************************************************************
 * GEOMETRY EDITING - INPUT COORDINATES ARE GIVEN IN ANGSTROM         
 *******************************************************************************

 GEOMETRY NOW FULLY CONSISTENT WITH THE GROUP

 GCALCO - MAX INDICES DIRECT LATTICE VECTOR    12    12    21
 NO.OF VECTORS CREATED 6999 STARS  537 RMAX   141.24442 BOHR

 GEOMETRY FOR WAVE FUNCTION - DIMENSIONALITY OF THE SYSTEM    3
 (NON PERIODIC DIRECTION: LATTICE PARAMETER FORMALLY SET TO 500)
 *******************************************************************************
 LATTICE PARAMETERS (ANGSTROMS AND DEGREES) - BOHR = 0.5291772083 ANGSTROM
 PRIMITIVE CELL - CENTRING CODE 1/0 VOLUME=   247.882923 - DENSITY  0.965 g/cm^3
         A              B              C           ALPHA      BETA       GAMMA 
     7.53712784     7.53712784     4.36349865    90.000000  90.000000  90.000000
 *******************************************************************************
 ATOMS IN THE ASYMMETRIC UNIT    4 - ATOMS IN THE UNIT CELL:   24
     ATOM                 X/A                 Y/B                 Z/C    
 *******************************************************************************
      1 T   8 O     1.809610996884E-01 -1.809610996884E-01  0.000000000000E+00
      2 F   8 O    -1.809610996884E-01  1.809610996884E-01  0.000000000000E+00
      3 F   8 O    -3.190389003116E-01 -3.190389003116E-01 -5.000000000000E-01
      4 F   8 O     3.190389003116E-01  3.190389003116E-01 -5.000000000000E-01
      5 T   8 O     1.742660328557E-01  1.742660328557E-01  0.000000000000E+00
      6 F   8 O    -1.742660328557E-01 -1.742660328557E-01  0.000000000000E+00
      7 F   8 O    -3.257339671443E-01  3.257339671443E-01 -5.000000000000E-01
      8 F   8 O     3.257339671443E-01 -3.257339671443E-01 -5.000000000000E-01
      9 T   1 H     2.357494615269E-01 -2.357494615269E-01  1.825627725454E-01
     10 F   1 H    -2.357494615269E-01  2.357494615269E-01  1.825627725454E-01
     11 F   1 H    -2.642505384731E-01 -2.642505384731E-01  3.174372274546E-01
     12 F   1 H     2.642505384731E-01  2.642505384731E-01  3.174372274546E-01
     13 F   1 H     2.357494615269E-01 -2.357494615269E-01 -1.825627725454E-01
     14 F   1 H    -2.357494615269E-01  2.357494615269E-01 -1.825627725454E-01
     15 F   1 H     2.642505384731E-01  2.642505384731E-01 -3.174372274546E-01
     16 F   1 H    -2.642505384731E-01 -2.642505384731E-01 -3.174372274546E-01
     17 T   1 H     4.416127024998E-02  1.907072611582E-01  0.000000000000E+00
     18 F   1 H    -4.416127024998E-02 -1.907072611582E-01  0.000000000000E+00
     19 F   1 H    -4.558387297500E-01  3.092927388418E-01 -5.000000000000E-01
     20 F   1 H     4.558387297500E-01 -3.092927388418E-01 -5.000000000000E-01
     21 F   1 H    -1.907072611582E-01 -4.416127024998E-02  0.000000000000E+00
     22 F   1 H     1.907072611582E-01  4.416127024998E-02  0.000000000000E+00
     23 F   1 H    -3.092927388418E-01  4.558387297500E-01 -5.000000000000E-01
     24 F   1 H     3.092927388418E-01 -4.558387297500E-01 -5.000000000000E-01

 T = ATOM BELONGING TO THE ASYMMETRIC UNIT

 ****   16 SYMMOPS - TRANSLATORS IN FRACTIONAL UNITS
 **** MATRICES AND TRANSLATORS IN THE CRYSTALLOGRAPHIC REFERENCE FRAME
   V INV                    ROTATION MATRICES                   TRANSLATORS
   1   1  1.00  0.00  0.00  0.00  1.00  0.00  0.00  0.00  1.00  0.00  0.00  0.00
   2   2 -1.00  0.00  0.00  0.00 -1.00  0.00  0.00  0.00  1.00  0.00  0.00  0.00
   3   3  1.00  0.00  0.00  0.00 -1.00  0.00  0.00  0.00 -1.00  0.50  0.50  0.50
   4   4 -1.00  0.00  0.00  0.00  1.00  0.00  0.00  0.00 -1.00  0.50  0.50  0.50
   5   5  0.00 -1.00  0.00 -1.00  0.00  0.00  0.00  0.00 -1.00  0.00  0.00  0.00
   6   6  0.00  1.00  0.00  1.00  0.00  0.00  0.00  0.00 -1.00  0.00  0.00  0.00
   7   8  0.00  1.00  0.00 -1.00  0.00  0.00  0.00  0.00  1.00  0.50  0.50  0.50
   8   7  0.00 -1.00  0.00  1.00  0.00  0.00  0.00  0.00  1.00  0.50  0.50  0.50
   9   9 -1.00  0.00  0.00  0.00 -1.00  0.00  0.00  0.00 -1.00  0.00  0.00  0.00
  10  10  1.00  0.00  0.00  0.00  1.00  0.00  0.00  0.00 -1.00  0.00  0.00  0.00
  11  11 -1.00  0.00  0.00  0.00  1.00  0.00  0.00  0.00  1.00  0.50  0.50  0.50
  12  12  1.00  0.00  0.00  0.00 -1.00  0.00  0.00  0.00  1.00  0.50  0.50  0.50
  13  13  0.00  1.00  0.00  1.00  0.00  0.00  0.00  0.00  1.00  0.00  0.00  0.00
  14  14  0.00 -1.00  0.00 -1.00  0.00  0.00  0.00  0.00  1.00  0.00  0.00  0.00
  15  16  0.00 -1.00  0.00  1.00  0.00  0.00  0.00  0.00 -1.00  0.50  0.50  0.50
  16  15  0.00  1.00  0.00 -1.00  0.00  0.00  0.00  0.00 -1.00  0.50  0.50  0.50

 DIRECT LATTICE VECTORS CARTESIAN COMPONENTS (ANGSTROM)
          X                    Y                    Z
   0.753712784000E+01   0.000000000000E+00   0.000000000000E+00
   0.000000000000E+00   0.753712784000E+01   0.000000000000E+00
   0.000000000000E+00   0.000000000000E+00   0.436349865000E+01


 CARTESIAN COORDINATES - PRIMITIVE CELL
 *******************************************************************************
 *      ATOM          X(ANGSTROM)         Y(ANGSTROM)         Z(ANGSTROM)
 *******************************************************************************
    1     8 O     1.363926942418E+00 -1.363926942418E+00  0.000000000000E+00
    2     8 O    -1.363926942418E+00  1.363926942418E+00  0.000000000000E+00
    3     8 O    -2.404636977582E+00 -2.404636977582E+00  2.181749325000E+00
    4     8 O     2.404636977582E+00  2.404636977582E+00  2.181749325000E+00
    5     8 O     1.313465367803E+00  1.313465367803E+00  0.000000000000E+00
    6     8 O    -1.313465367803E+00 -1.313465367803E+00  0.000000000000E+00
    7     8 O    -2.455098552197E+00  2.455098552197E+00  2.181749325000E+00
    8     8 O     2.455098552197E+00 -2.455098552197E+00  2.181749325000E+00
    9     1 H     1.776873829739E+00 -1.776873829739E+00  7.966124115421E-01
   10     1 H    -1.776873829739E+00  1.776873829739E+00  7.966124115421E-01
   11     1 H    -1.991690090261E+00 -1.991690090261E+00  1.385136913458E+00
   12     1 H     1.991690090261E+00  1.991690090261E+00  1.385136913458E+00
   13     1 H     1.776873829739E+00 -1.776873829739E+00 -7.966124115421E-01
   14     1 H    -1.776873829739E+00  1.776873829739E+00 -7.966124115421E-01
   15     1 H     1.991690090261E+00  1.991690090261E+00 -1.385136913458E+00
   16     1 H    -1.991690090261E+00 -1.991690090261E+00 -1.385136913458E+00
   17     1 H     3.328491394509E-01  1.437385007366E+00  0.000000000000E+00
   18     1 H    -3.328491394509E-01 -1.437385007366E+00  0.000000000000E+00
   19     1 H    -3.435714780549E+00  2.331178912634E+00  2.181749325000E+00
   20     1 H     3.435714780549E+00 -2.331178912634E+00  2.181749325000E+00
   21     1 H    -1.437385007366E+00 -3.328491394509E-01  0.000000000000E+00
   22     1 H     1.437385007366E+00  3.328491394509E-01  0.000000000000E+00
   23     1 H    -2.331178912634E+00  3.435714780549E+00  2.181749325000E+00
   24     1 H     2.331178912634E+00 -3.435714780549E+00  2.181749325000E+00

 *******************************************************************************
 STARTING BASIS SET HANDLING 
 *******************************************************************************

 Loading internal basis set: DEF2-MSVP           

 Please cite in your publication:
 Fully Optimized Contracted Gaussian Basis Sets for Atoms Li to Kr. A. Schäfer, 
 H. Horn and R. Ahlrichs; J. Chem. Phys. 97, 2571 (1992).                       
                                                                                
                    
 S. Grimme, J. G. Brandenburg, C. Bannwarth, and A. Hansen, J. Chem. Phys., 143,
  054107 (2015).                                                                
                                                                                
                    

 *******************************************************************************
 LOCAL ATOMIC FUNCTIONS BASIS SET
 *******************************************************************************
   ATOM   X(AU)   Y(AU)   Z(AU)  N. TYPE  EXPONENT  S COEF   P COEF   D/F/G COEF
 *******************************************************************************
   1 O    2.577  -2.577   0.000
                                  1 S  
                                         6.773E+03 1.727E-03 0.000E+00 0.000E+00
                                         1.017E+03 1.325E-02 0.000E+00 0.000E+00
                                         2.313E+02 6.603E-02 0.000E+00 0.000E+00
                                         6.501E+01 2.353E-01 0.000E+00 0.000E+00
                                         2.050E+01 5.498E-01 0.000E+00 0.000E+00
                                  2 S  
                                         6.716E+00 1.000E+00 0.000E+00 0.000E+00
                                  3 S  
                                         1.147E+00 1.000E+00 0.000E+00 0.000E+00
                                  4 S  
                                         3.342E-01 1.000E+00 0.000E+00 0.000E+00
                           5-     7 P  
                                         1.769E+01 0.000E+00 4.359E-02 0.000E+00
                                         3.854E+00 0.000E+00 2.318E-01 0.000E+00
                                         1.047E+00 0.000E+00 5.146E-01 0.000E+00
                           8-    10 P  
                                         2.759E-01 0.000E+00 1.000E+00 0.000E+00
                          11-    15 D  
                                         8.000E-01 0.000E+00 0.000E+00 1.000E+00
   2 O   -2.577   2.577   0.000
   3 O   -4.544  -4.544   4.123
   4 O    4.544   4.544   4.123
   5 O    2.482   2.482   0.000
   6 O   -2.482  -2.482   0.000
   7 O   -4.639   4.639   4.123
   8 O    4.639  -4.639   4.123
   9 H    3.358  -3.358   1.505
                                121 S  
                                         1.874E+01 1.968E-02 0.000E+00 0.000E+00
                                         2.826E+00 1.380E-01 0.000E+00 0.000E+00
                                         6.401E-01 4.783E-01 0.000E+00 0.000E+00
                                122 S  
                                         1.756E-01 1.000E+00 0.000E+00 0.000E+00
  10 H   -3.358   3.358   1.505
  11 H   -3.764  -3.764   2.618
  12 H    3.764   3.764   2.618
  13 H    3.358  -3.358  -1.505
  14 H   -3.358   3.358  -1.505
  15 H    3.764   3.764  -2.618
  16 H   -3.764  -3.764  -2.618
  17 H    0.629   2.716   0.000
  18 H   -0.629  -2.716   0.000
  19 H   -6.493   4.405   4.123
  20 H    6.493  -4.405   4.123
  21 H   -2.716  -0.629   0.000
  22 H    2.716   0.629   0.000
  23 H   -4.405   6.493   4.123
  24 H    4.405  -6.493   4.123

 *******************************************************************************
 FINISHED BASIS SET HANDLING 
 *******************************************************************************

 INFORMATION **** SET_MPP **** PCRYSTAL CALCULATION
 INFORMATION **** READM2 **** NEW DEFAULT: FOCK/KS MATRIX MIXING SET TO 30 %
 INFORMATION **** READM2 **** NEW DEFAULT: FULL DIRECT SCF MODE
 INFORMATION **** READM2 **** NEW DEFAULT: COULOMB BIPOLAR BUFFER SET TO 32 Mb
 INFORMATION **** READM2 **** NEW DEFAULT: EXCHANGE BIPOLAR BUFFER SET TO 32 Mb

 *******************************************************************************
 NEW DEFAULT: DFT INTEGRATION GRID INCREASED TO XLGRID
 NEW DEFAULT: DIIS ACCELERATOR ACTIVE
 USE KEYWORD NODIIS TO TURN IT OFF
 *******************************************************************************

 INFORMATION **** RDDFTP **** HSE-3c calculation
 INFORMATION **** RDDFTP **** HSE screened hybrid functional combined with D3 and gCP

PLEASE CITE:
(1) HSE-3c Reference
 J. G. Brandenburg, E. Caldeweyer, and S. Grimme, 
 Phys. Chem. Chem. Phys. 18, 15519 (2016)
(2) DFT-D3 Reference
 S. Grimme, J. Antony, S. Ehrlich,
 and H. Krieg, J. Chem. Phys. 132, 154104 (2010)
(3) gCP Reference
 H. Kruse and S. Grimme J. Chem. Phys, 136, 154101 (2012)
 J. G. Brandenburg, M. Alessio, B. Civalleri, M. F. Peintinger
 T. Bredow, and S. Grimme, J. Phys. Chem. A, 117, 9282 (2013) 

 WARNING **** RDDFTP **** HSE3c-HJS ACTIVE
 RANGE SEPARATION - OMEGA:   0.110000000000000     
 WARNING **** RDDFTP **** HSE-3c has to be combined with def2-mSVP basis set
 WARNING **** RDDFTP **** Note: Harmonic frequencies are scaled by 0.95
 WARNING **** RDDFTP **** as recommended in original publication
 INFORMATION **** BIPOSIZE **** COULOMB BIPOLAR BUFFER SET TO    60000000
 INFORMATION **** EXCHSIZE **** EXCHANGE BIPOLAR BUFFER SIZE SET TO    40000000
 *******************************************************************************
 N. OF ATOMS PER CELL        24  COULOMB OVERLAP TOL         (T1) 10**   -6
 NUMBER OF SHELLS            88  COULOMB PENETRATION TOL     (T2) 10**   -6
 NUMBER OF AO               152  EXCHANGE OVERLAP TOL        (T3) 10**   -6
 N. OF ELECTRONS PER CELL    80  EXCHANGE PSEUDO OVP (F(G))  (T4) 10**   -6
 CORE ELECTRONS PER CELL     16  EXCHANGE PSEUDO OVP (P(G))  (T5) 10**  -12
 N. OF SYMMETRY OPERATORS    16  POLE ORDER IN MONO ZONE                  4
 *******************************************************************************
 TYPE OF CALCULATION :  RESTRICTED CLOSED SHELL
 KOHN-SHAM HAMILTONIAN

 (EXCHANGE)[CORRELATION] FUNCTIONAL:(HSE-3c)[PBEh-3c]

 RANGE-SEPARATED HYBRID FUNCTIONAL 
 OMEGA (SHORT-RANGE)[LONG-RANGE]:(    0.1100)[    0.0000]

 HYBRID EXCHANGE - PERCENTAGE OF FOCK EXCHANGE    42.0000

 CAPPA:IS1  2;IS2  2;IS3  4; K PTS MONK NET   9; SYMMOPS:K SPACE  16;G SPACE  16

 *******************************************************************************
 MAX NUMBER OF SCF CYCLES      50  CONVERGENCE ON DELTAP        10**-16
 WEIGHT OF F(I) IN F(I+1)      30% CONVERGENCE ON ENERGY        10**- 6
 S(K) EIGENV. THRESHOLD  10*10.**-4
 SHRINK. FACT.(MONKH.)    2  2  4  NUMBER OF K POINTS IN THE IBZ      9
 SHRINKING FACTOR(GILAT NET)    2  NUMBER OF K POINTS(GILAT NET)      9
 *******************************************************************************
 *** K POINTS COORDINATES (OBLIQUE COORDINATES IN UNITS OF IS =  2)
   1-R(  0  0  0)   2-R(  1  0  0)   3-R(  1  1  0)   4-C(  0  0  1)
   5-C(  1  0  1)   6-C(  1  1  1)   7-R(  0  0  2)   8-R(  1  0  2)
   9-R(  1  1  2)

 DIRECT LATTICE VECTORS COMPON. (A.U.)     RECIP. LATTICE VECTORS COMPON. (A.U.) 
        X            Y            Z              X            Y            Z
   14.2431075    0.0000000    0.0000000      0.4411387    0.0000000    0.0000000
    0.0000000   14.2431075    0.0000000      0.0000000    0.4411387    0.0000000
    0.0000000    0.0000000    8.2458174      0.0000000    0.0000000    0.7619845

 DISK SPACE FOR EIGENVECTORS (FTN 10)      277248 REALS

 SYMMETRY ADAPTION OF THE BLOCH FUNCTIONS ENABLED
 TTTTTTTTTTTTTTTTTTTTTTTTTTTTTT gordsh1     TELAPSE        0.33 TCPU        0.05

 MATRIX SIZE: P(G)   74064, F(G)   12484, P(G) IRR    3681, F(G) IRR    1466
 MAX G-VECTOR INDEX FOR 1- AND 2-ELECTRON INTEGRALS  75

 TTTTTTTTTTTTTTTTTTTTTTTTTTTTTT INPUT       TELAPSE        0.38 TCPU        0.10

 NEIGHBORS OF THE NON-EQUIVALENT ATOMS

 N = NUMBER OF NEIGHBORS AT DISTANCE R
    ATOM  N     R/ANG      R/AU   NEIGHBORS (ATOM LABELS AND CELL INDICES)
   1 O    2     0.9877     1.8666    9 H    0 0 0   13 H    0 0 0
   1 O    2     1.6984     3.2094   18 H    0 0 0   22 H    0 0 0
   1 O    2     2.6723     5.0500    8 O    0 0 0    8 O    0 0-1
   1 O    2     2.6779     5.0604    5 O    0 0 0    6 O    0 0 0
   1 O    2     2.9850     5.6409   17 H    0 0 0   21 H    0 0 0
   1 O    4     3.1604     5.9722   20 H    0 0 0   20 H    0 0-1   24 H    0 0-1
                                    24 H    0 0 0

   5 O    2     0.9884     1.8678   17 H    0 0 0   22 H    0 0 0
   5 O    2     1.6848     3.1838   12 H    0 0 0   15 H    0 0 0
   5 O    2     2.6723     5.0500    4 O    0 0 0    4 O    0 0-1
   5 O    2     2.6779     5.0604    1 O    0 0 0    2 O    0 0 0
   5 O    2     3.1290     5.9129   12 H    0 0-1   15 H    0 0 1
   5 O    2     3.2059     6.0582   18 H    0 0 0   21 H    0 0 0

   9 H    1     0.9877     1.8666    1 O    0 0 0
   9 H    1     1.5932     3.0108   13 H    0 0 0
   9 H    1     1.6848     3.1838    8 O    0 0 0
   9 H    2     2.2311     4.2161   20 H    0 0 0   24 H    0 0 0
   9 H    2     2.2805     4.3096   18 H    0 0 0   22 H    0 0 0
   9 H    1     2.7703     5.2351   13 H    0 0 1

  17 H    1     0.9884     1.8678    5 O    0 0 0
  17 H    1     1.5620     2.9518   22 H    0 0 0
  17 H    1     1.6984     3.2094    2 O    0 0 0
  17 H    2     2.2311     4.2161   12 H    0 0 0   15 H    0 0 0
  17 H    2     2.2805     4.3096   10 H    0 0 0   14 H    0 0 0
  17 H    1     2.5035     4.7309   21 H    0 0 0


 SYMMETRY ALLOWED INTERNAL DEGREE(S) OF FREEDOM:   6
 TTTTTTTTTTTTTTTTTTTTTTTTTTTTTT SYMM        TELAPSE        2.91 TCPU        2.45
 TTTTTTTTTTTTTTTTTTTTTTTTTTTTTT INT_SCREEN  TELAPSE        2.91 TCPU        2.46

 DFT PARAMETERS

     ATOM       ELECTRONS   NET CHARGE   R(ANGSTROM)
   1   8  O       8.0000      0.0000     0.74000000
   9   1  H       1.0000      0.0000     1.11000000

 SIZE OF GRID=      38577
 TTTTTTTTTTTTTTTTTTTTTTTTTTTTTT MAKE_GRID2  TELAPSE        3.79 TCPU        3.31
 BECKE WEIGHT FUNCTION
 RADSAFE =     2.00
 TOLERANCES - DENSITY:10**- 6; POTENTIAL:10**- 9; GRID WGT:10**-14

 RADIAL INTEGRATION  - INTERVALS (POINTS,UPPER LIMIT):            1( 75,  4.0*R)

 ANGULAR INTEGRATION - INTERVALS (ACCURACY LEVEL [N. POINTS] UPPER LIMIT):
  1(  4[  86]   0.2)  2(  8[ 194]   0.5)  3( 12[ 350]   0.9)  4( 16[ 974]   3.5)
  5( 12[ 350]9999.0)
 TTTTTTTTTTTTTTTTTTTTTTTTTTTTTT INT_CALC    TELAPSE        3.81 TCPU        3.33
 EEEEEEEEEE INT_CALC TERMINATION  DATE 25 03 2019 TIME 22:20:31.4

 *******************************************************************************
 !drive by JGB                                                                   
 CRYSTAL - SCF - TYPE OF CALCULATION :  RESTRICTED CLOSED SHELL
 *******************************************************************************

 CAPPA:IS1  2;IS2  2;IS3  4; K PTS MONK NET   9; SYMMOPS:K SPACE  16;G SPACE  16

 TTTTTTTTTTTTTTTTTTTTTTTTTTTTTT SDIK        TELAPSE        3.95 TCPU        3.35

 AAAAAAAAAAAAAAAAAAAAAAAAAAAAAAAAAAAAAAAAAAAAAAAAAAAAAAAAAAAAAAAAAAAAAAAAAAAAAAA
         ATOMIC WAVEFUNCTION(S)


 NUCLEAR CHARGE  8.0  SYMMETRY SPECIES            S    P
 N. ELECTRONS    8.0  NUMBER OF PRIMITIVE GTOS    8    4
                      NUMBER OF CONTRACTED GTOS   4    2
                      NUMBER OF CLOSED SHELLS     2    0
                      OPEN SHELL OCCUPATION       0    4

  ZNUC SCFIT  TOTAL HF ENERGY   KINETIC ENERGY   VIRIAL THEOREM ACCURACY
   8.0  12   -7.477373220E+01  7.477365593E+01 -2.000001020E+00  3.8E-06

 NUCLEAR CHARGE  1.0  SYMMETRY SPECIES            S
 N. ELECTRONS    1.0  NUMBER OF PRIMITIVE GTOS    4
                      NUMBER OF CONTRACTED GTOS   2
                      NUMBER OF CLOSED SHELLS     0
                      OPEN SHELL OCCUPATION       1

  ZNUC SCFIT  TOTAL HF ENERGY   KINETIC ENERGY   VIRIAL THEOREM ACCURACY
   1.0   1   -4.977266687E-01  5.190767460E-01 -1.958869132E+00  1.8E-16

 AAAAAAAAAAAAAAAAAAAAAAAAAAAAAAAAAAAAAAAAAAAAAAAAAAAAAAAAAAAAAAAAAAAAAAAAAAAAAAA

 CHARGE NORMALIZATION FACTOR   1.00000000
 TOTAL ATOMIC CHARGES:
   8.0000000   8.0000000   8.0000000   8.0000000   8.0000000   8.0000000
   8.0000000   8.0000000   1.0000000   1.0000000   1.0000000   1.0000000
   1.0000000   1.0000000   1.0000000   1.0000000   1.0000000   1.0000000
   1.0000000   1.0000000   1.0000000   1.0000000   1.0000000   1.0000000
 TTTTTTTTTTTTTTTTTTTTTTTTTTTTTT MOQGAD      TELAPSE        4.12 TCPU        3.51
 TTTTTTTTTTTTTTTTTTTTTTTTTTTTTT SHELLXN     TELAPSE        4.85 TCPU        4.23
 TTTTTTTTTTTTTTTTTTTTTTTTTTTTTT MONMO3      TELAPSE        5.22 TCPU        4.59
 NUMERICALLY INTEGRATED DENSITY     80.0000203926
 TTTTTTTTTTTTTTTTTTTTTTTTTTTTTT NUMDFT      TELAPSE        5.30 TCPU        4.67
 CYC   0 ETOT(AU) -6.106715454119E+02 DETOT -6.11E+02 tst  0.00E+00 PX  1.00E+00
 TTTTTTTTTTTTTTTTTTTTTTTTTTTTTT DIIS        TELAPSE        5.32 TCPU        4.69
 TTTTTTTTTTTTTTTTTTTTTTTTTTTTTT FDIK        TELAPSE        5.64 TCPU        4.98
 INSULATING STATE
 TOP OF VALENCE BANDS -    BAND     40; K    4; EIG -4.1779613E-01 AU
 TOP OF VALENCE BANDS -    BAND     40; K    1; EIG -4.1868724E-01 AU
 BOTTOM OF VIRTUAL BANDS - BAND     41; K    1; EIG -4.1025137E-02 AU
 INDIRECT ENERGY BAND GAP:  10.2525 eV
 TTTTTTTTTTTTTTTTTTTTTTTTTTTTTT PDIG        TELAPSE        5.65 TCPU        4.98
 CHARGE NORMALIZATION FACTOR   1.00000000
 TOTAL ATOMIC CHARGES:
   9.0832292   9.0832292   9.0832292   9.0832292   9.0696490   9.0696490
   9.0696490   9.0696490   0.4603129   0.4603129   0.4603129   0.4603129
   0.4603129   0.4603129   0.4603129   0.4603129   0.4632480   0.4632480
   0.4632480   0.4632480   0.4632480   0.4632480   0.4632480   0.4632480
 TTTTTTTTTTTTTTTTTTTTTTTTTTTTTT MOQGAD      TELAPSE        5.65 TCPU        4.98
 TTTTTTTTTTTTTTTTTTTTTTTTTTTTTT SHELLXN     TELAPSE        6.40 TCPU        5.72
 TTTTTTTTTTTTTTTTTTTTTTTTTTTTTT MONMO3      TELAPSE        6.59 TCPU        5.91
 NUMERICALLY INTEGRATED DENSITY     80.0000202473
 TTTTTTTTTTTTTTTTTTTTTTTTTTTTTT NUMDFT      TELAPSE        6.73 TCPU        6.06
 CYC   1 ETOT(AU) -6.101911650387E+02 DETOT  4.80E-01 tst  0.00E+00 PX  1.00E+00
 TTTTTTTTTTTTTTTTTTTTTTTTTTTTTT DIIS        TELAPSE        6.77 TCPU        6.09
 DIIS TEST: 0.57783E+00 AT SCF   CYCLE   1 - MIX   30 %
 TTTTTTTTTTTTTTTTTTTTTTTTTTTTTT FDIK        TELAPSE        6.78 TCPU        6.10
 INSULATING STATE
 TOP OF VALENCE BANDS -    BAND     40; K    1; EIG -3.1747572E-01 AU
 BOTTOM OF VIRTUAL BANDS - BAND     41; K    1; EIG  2.3722977E-02 AU
 DIRECT ENERGY BAND GAP:   9.2845 eV
 TTTTTTTTTTTTTTTTTTTTTTTTTTTTTT PDIG        TELAPSE        6.79 TCPU        6.10
 CHARGE NORMALIZATION FACTOR   1.00000000
 TOTAL ATOMIC CHARGES:
   8.8771910   8.8771910   8.8771910   8.8771910   8.8716845   8.8716845
   8.8716845   8.8716845   0.5608284   0.5608284   0.5608284   0.5608284
   0.5608284   0.5608284   0.5608284   0.5608284   0.5647338   0.5647338
   0.5647338   0.5647338   0.5647338   0.5647338   0.5647338   0.5647338
 TTTTTTTTTTTTTTTTTTTTTTTTTTTTTT MOQGAD      TELAPSE        6.79 TCPU        6.10
 TTTTTTTTTTTTTTTTTTTTTTTTTTTTTT SHELLXN     TELAPSE        7.53 TCPU        6.84
 TTTTTTTTTTTTTTTTTTTTTTTTTTTTTT MONMO3      TELAPSE        7.62 TCPU        6.93
 NUMERICALLY INTEGRATED DENSITY     80.0000223733
 TTTTTTTTTTTTTTTTTTTTTTTTTTTTTT NUMDFT      TELAPSE        7.76 TCPU        7.07
 CYC   2 ETOT(AU) -6.103529831464E+02 DETOT -1.62E-01 tst  3.03E-03 PX  1.19E-01
 TTTTTTTTTTTTTTTTTTTTTTTTTTTTTT DIIS        TELAPSE        7.79 TCPU        7.08
 DIIS TEST: 0.11912E+00 AT SCF   CYCLE   2 - DIIS ACTIVE - HISTORY:     2 CYCLES
 TTTTTTTTTTTTTTTTTTTTTTTTTTTTTT FDIK        TELAPSE        7.81 TCPU        7.08
 INSULATING STATE
 TOP OF VALENCE BANDS -    BAND     40; K    4; EIG -3.5920184E-01 AU
 TOP OF VALENCE BANDS -    BAND     40; K    1; EIG -3.5947698E-01 AU
 BOTTOM OF VIRTUAL BANDS - BAND     41; K    1; EIG  2.2999690E-02 AU
 INDIRECT ENERGY BAND GAP:  10.4002 eV
 TTTTTTTTTTTTTTTTTTTTTTTTTTTTTT PDIG        TELAPSE        7.81 TCPU        7.09
 CHARGE NORMALIZATION FACTOR   1.00000000
 TOTAL ATOMIC CHARGES:
   8.9483929   8.9483929   8.9483929   8.9483929   8.9385203   8.9385203
   8.9385203   8.9385203   0.5260353   0.5260353   0.5260353   0.5260353
   0.5260353   0.5260353   0.5260353   0.5260353   0.5305081   0.5305081
   0.5305081   0.5305081   0.5305081   0.5305081   0.5305081   0.5305081
 TTTTTTTTTTTTTTTTTTTTTTTTTTTTTT MOQGAD      TELAPSE        7.82 TCPU        7.09
 TTTTTTTTTTTTTTTTTTTTTTTTTTTTTT SHELLXN     TELAPSE        8.56 TCPU        7.83
 TTTTTTTTTTTTTTTTTTTTTTTTTTTTTT MONMO3      TELAPSE        8.74 TCPU        8.01
 NUMERICALLY INTEGRATED DENSITY     80.0000216604
 TTTTTTTTTTTTTTTTTTTTTTTTTTTTTT NUMDFT      TELAPSE        8.89 TCPU        8.16
 CYC   3 ETOT(AU) -6.103941098352E+02 DETOT -4.11E-02 tst  3.13E-04 PX  4.03E-02
 TTTTTTTTTTTTTTTTTTTTTTTTTTTTTT DIIS        TELAPSE        8.89 TCPU        8.16
 DIIS TEST: 0.23172E-03 AT SCF   CYCLE   3 - DIIS ACTIVE - HISTORY:     3 CYCLES
 TTTTTTTTTTTTTTTTTTTTTTTTTTTTTT FDIK        TELAPSE        8.90 TCPU        8.16
 INSULATING STATE
 TOP OF VALENCE BANDS -    BAND     40; K    1; EIG -3.5723599E-01 AU
 BOTTOM OF VIRTUAL BANDS - BAND     41; K    1; EIG  2.5003233E-02 AU
 DIRECT ENERGY BAND GAP:  10.4013 eV
 TTTTTTTTTTTTTTTTTTTTTTTTTTTTTT PDIG        TELAPSE        8.90 TCPU        8.17
 CHARGE NORMALIZATION FACTOR   1.00000000
 TOTAL ATOMIC CHARGES:
   8.9452698   8.9452698   8.9452698   8.9452698   8.9387820   8.9387820
   8.9387820   8.9387820   0.5270384   0.5270384   0.5270384   0.5270384
   0.5270384   0.5270384   0.5270384   0.5270384   0.5309356   0.5309356
   0.5309356   0.5309356   0.5309356   0.5309356   0.5309356   0.5309356
 TTTTTTTTTTTTTTTTTTTTTTTTTTTTTT MOQGAD      TELAPSE        8.91 TCPU        8.17
 TTTTTTTTTTTTTTTTTTTTTTTTTTTTTT SHELLXN     TELAPSE        9.65 TCPU        8.91
 TTTTTTTTTTTTTTTTTTTTTTTTTTTTTT MONMO3      TELAPSE        9.73 TCPU        9.00
 NUMERICALLY INTEGRATED DENSITY     80.0000217157
 TTTTTTTTTTTTTTTTTTTTTTTTTTTTTT NUMDFT      TELAPSE        9.88 TCPU        9.14
 CYC   4 ETOT(AU) -6.103941801355E+02 DETOT -7.03E-05 tst  1.07E-06 PX  1.78E-03
 TTTTTTTTTTTTTTTTTTTTTTTTTTTTTT DIIS        TELAPSE        9.88 TCPU        9.15
 DIIS TEST: 0.23862E-04 AT SCF   CYCLE   4 - DIIS ACTIVE - HISTORY:     4 CYCLES
 TTTTTTTTTTTTTTTTTTTTTTTTTTTTTT FDIK        TELAPSE        9.89 TCPU        9.15
 INSULATING STATE
 TOP OF VALENCE BANDS -    BAND     40; K    4; EIG -3.5732193E-01 AU
 TOP OF VALENCE BANDS -    BAND     40; K    1; EIG -3.5766294E-01 AU
 BOTTOM OF VIRTUAL BANDS - BAND     41; K    1; EIG  2.5182824E-02 AU
 INDIRECT ENERGY BAND GAP:  10.4085 eV
 TTTTTTTTTTTTTTTTTTTTTTTTTTTTTT PDIG        TELAPSE        9.90 TCPU        9.16
 CHARGE NORMALIZATION FACTOR   1.00000000
 TOTAL ATOMIC CHARGES:
   8.9471519   8.9471519   8.9471519   8.9471519   8.9369025   8.9369025
   8.9369025   8.9369025   0.5267237   0.5267237   0.5267237   0.5267237
   0.5267237   0.5267237   0.5267237   0.5267237   0.5312490   0.5312490
   0.5312490   0.5312490   0.5312490   0.5312490   0.5312490   0.5312490
 TTTTTTTTTTTTTTTTTTTTTTTTTTTTTT MOQGAD      TELAPSE        9.90 TCPU        9.16
 TTTTTTTTTTTTTTTTTTTTTTTTTTTTTT SHELLXN     TELAPSE       10.64 TCPU        9.90
 TTTTTTTTTTTTTTTTTTTTTTTTTTTTTT MONMO3      TELAPSE       10.73 TCPU        9.99
 NUMERICALLY INTEGRATED DENSITY     80.0000217075
 TTTTTTTTTTTTTTTTTTTTTTTTTTTTTT NUMDFT      TELAPSE       10.94 TCPU       10.19
 CYC   5 ETOT(AU) -6.103941820631E+02 DETOT -1.93E-06 tst  3.15E-07 PX  8.51E-04
 TTTTTTTTTTTTTTTTTTTTTTTTTTTTTT DIIS        TELAPSE       10.94 TCPU       10.20
 DIIS TEST: 0.15553E-04 AT SCF   CYCLE   5 - DIIS ACTIVE - HISTORY:     5 CYCLES
 TTTTTTTTTTTTTTTTTTTTTTTTTTTTTT FDIK        TELAPSE       10.95 TCPU       10.20
 INSULATING STATE
 TOP OF VALENCE BANDS -    BAND     40; K    1; EIG -3.5738519E-01 AU
 BOTTOM OF VIRTUAL BANDS - BAND     41; K    1; EIG  2.5207538E-02 AU
 DIRECT ENERGY BAND GAP:  10.4109 eV
 TTTTTTTTTTTTTTTTTTTTTTTTTTTTTT PDIG        TELAPSE       10.95 TCPU       10.21
 CHARGE NORMALIZATION FACTOR   1.00000000
 TOTAL ATOMIC CHARGES:
   8.9462042   8.9462042   8.9462042   8.9462042   8.9378420   8.9378420
   8.9378420   8.9378420   0.5268675   0.5268675   0.5268675   0.5268675
   0.5268675   0.5268675   0.5268675   0.5268675   0.5311095   0.5311095
   0.5311095   0.5311095   0.5311095   0.5311095   0.5311095   0.5311095
 TTTTTTTTTTTTTTTTTTTTTTTTTTTTTT MOQGAD      TELAPSE       10.96 TCPU       10.21
 TTTTTTTTTTTTTTTTTTTTTTTTTTTTTT SHELLXN     TELAPSE       11.70 TCPU       10.95
 TTTTTTTTTTTTTTTTTTTTTTTTTTTTTT MONMO3      TELAPSE       11.79 TCPU       11.04
 NUMERICALLY INTEGRATED DENSITY     80.0000217130
 TTTTTTTTTTTTTTTTTTTTTTTTTTTTTT NUMDFT      TELAPSE       11.95 TCPU       11.19
 CYC   6 ETOT(AU) -6.103941875517E+02 DETOT -5.49E-06 tst  5.44E-08 PX  4.40E-04
 TTTTTTTTTTTTTTTTTTTTTTTTTTTTTT DIIS        TELAPSE       11.95 TCPU       11.20
 DIIS TEST: 0.22884E-06 AT SCF   CYCLE   6 - DIIS ACTIVE - HISTORY:     6 CYCLES
 TTTTTTTTTTTTTTTTTTTTTTTTTTTTTT FDIK        TELAPSE       11.96 TCPU       11.20
 INSULATING STATE
 TOP OF VALENCE BANDS -    BAND     40; K    1; EIG -3.5737599E-01 AU
 BOTTOM OF VIRTUAL BANDS - BAND     41; K    1; EIG  2.5220365E-02 AU
 DIRECT ENERGY BAND GAP:  10.4110 eV
 TTTTTTTTTTTTTTTTTTTTTTTTTTTTTT PDIG        TELAPSE       11.96 TCPU       11.21
 CHARGE NORMALIZATION FACTOR   1.00000000
 TOTAL ATOMIC CHARGES:
   8.9461946   8.9461946   8.9461946   8.9461946   8.9377723   8.9377723
   8.9377723   8.9377723   0.5268843   0.5268843   0.5268843   0.5268843
   0.5268843   0.5268843   0.5268843   0.5268843   0.5311323   0.5311323
   0.5311323   0.5311323   0.5311323   0.5311323   0.5311323   0.5311323
 TTTTTTTTTTTTTTTTTTTTTTTTTTTTTT MOQGAD      TELAPSE       11.97 TCPU       11.21
 TTTTTTTTTTTTTTTTTTTTTTTTTTTTTT SHELLXN     TELAPSE       12.74 TCPU       11.95
 TTTTTTTTTTTTTTTTTTTTTTTTTTTTTT MONMO3      TELAPSE       12.83 TCPU       12.04
 NUMERICALLY INTEGRATED DENSITY     80.0000217139
 TTTTTTTTTTTTTTTTTTTTTTTTTTTTTT NUMDFT      TELAPSE       13.06 TCPU       12.27
 CYC   7 ETOT(AU) -6.103941875931E+02 DETOT -4.14E-08 tst  5.45E-10 PX  3.84E-05
 TTTTTTTTTTTTTTTTTTTTTTTTTTTTTT DIIS        TELAPSE       13.08 TCPU       12.29
 DIIS TEST: 0.76320E-09 AT SCF   CYCLE   7 - DIIS ACTIVE - HISTORY:     7 CYCLES
 TTTTTTTTTTTTTTTTTTTTTTTTTTTTTT FDIK        TELAPSE       13.12 TCPU       12.33
 INSULATING STATE
 TOP OF VALENCE BANDS -    BAND     40; K    1; EIG -3.5737472E-01 AU
 BOTTOM OF VIRTUAL BANDS - BAND     41; K    1; EIG  2.5222335E-02 AU
 DIRECT ENERGY BAND GAP:  10.4110 eV
 TTTTTTTTTTTTTTTTTTTTTTTTTTTTTT PDIG        TELAPSE       13.13 TCPU       12.34
 CHARGE NORMALIZATION FACTOR   1.00000000
 TOTAL ATOMIC CHARGES:
   8.9461929   8.9461929   8.9461929   8.9461929   8.9377664   8.9377664
   8.9377664   8.9377664   0.5268847   0.5268847   0.5268847   0.5268847
   0.5268847   0.5268847   0.5268847   0.5268847   0.5311357   0.5311357
   0.5311357   0.5311357   0.5311357   0.5311357   0.5311357   0.5311357
 TTTTTTTTTTTTTTTTTTTTTTTTTTTTTT MOQGAD      TELAPSE       13.13 TCPU       12.34
 TTTTTTTTTTTTTTTTTTTTTTTTTTTTTT SHELLXN     TELAPSE       13.87 TCPU       13.08
 +++ ENERGIES IN A.U. +++
 ::: EXT EL-POLE                                  -5.0274929007595E+02
 ::: EXT EL-SPHEROPOLE                             6.3243419903486E+00
 ::: BIELET ZONE E-E                               6.8327982712980E+02
 ::: TOTAL E-E                                     1.8685487904420E+02
 ::: TOTAL E-N + N-E                              -1.2606076338070E+03
 ::: TOTAL N-N                                    -9.7373988210123E+01
 ::: KINETIC ENERGY                                6.0653210129227E+02
 ::: PSEUDO TOTAL   ENERGY                        -5.6459464168067E+02
 ::: VIRIAL COEFFICIENT                            1.0358094970192E+00
 TTTTTTTTTTTTTTTTTTTTTTTTTTTTTT MONMO3      TELAPSE       13.96 TCPU       13.16
 NUMERICALLY INTEGRATED DENSITY     80.0000217140
 TTTTTTTTTTTTTTTTTTTTTTTTTTTTTT NUMDFT      TELAPSE       14.11 TCPU       13.32
 CYC   8 ETOT(AU) -6.103941875926E+02 DETOT  5.08E-10 tst  1.04E-11 PX  3.84E-05

 == SCF ENDED - CONVERGENCE ON ENERGY      E(AU) -6.1039418759255E+02 CYCLES   8


 ENERGY EXPRESSION=HARTREE+FOCK EXCH*0.00000+(HSE-3c     EXCH)*1.00000+PBEh-3c    CORR


 TOTAL ENERGY(DFT)(AU)(  8) -6.1039418759255E+02 DE 5.1E-10 tester 1.0E-11
 TTTTTTTTTTTTTTTTTTTTTTTTTTTTTT EDFT        TELAPSE       14.11 TCPU       13.32
 
 INFORMATION **** DFTD3 ENERGY **** CALCULATE DFTD3 ENERGY

           DFT-D V3(BJ)
 DF                                         hse3c     
 parameters
 s6       :    1.0000
 s8       :    0.0000
 a1       :    0.4411
 a2       :    4.5182
 k1 k3    :   16.0000   -4.0000
 Cutoff   :   50.2022
 CN-Cutoff:   21.1671
 
 Edisp /kcal,au:   -12.4330 -0.01981332

 E6    /kcal :   -13.1871
 E8    /kcal :     0.0000
 E6(ABC) "   :   0.754069
 
 INFORMATION **** DFTD3 ENERGY **** NORMAL TERMINATION OF DFTD3 MODULE

 GCP ENERGY CALCULATION
  level           hse3c               basis:hse3c
  Nbf            152
  Atoms           24

  Parameters: 
  sigma     1.0000
  eta       1.4086
  alpha     0.2908
  beta      1.9526

  dmp_scal      4.0000
  dmp_exp       6.0000
 cutoffs: 
   distance [bohr] 60.0
   noise    [a.u.] 2.2E-16
 SR-damping   T
 ** gCP correction **
  Egcp:        0.1053040435 / (a.u.) ||      66.0793 / (kcal/mol)
 INFORMATION **** GCP **** NORMAL TERMINATION OF GCP MODULE

 *******************************************************************************

 DFT-D3-GCP DISPERSION AND COUNTERPOISE CORRECTION

 D3 DISPERSION ENERGY (AU)      -1.9813315849306E-02
 GCP ENERGY (AU)                 1.0530404348238E-01
 TOTAL ENERGY + DISP + GCP (AU) -6.1030869686492E+02

 *******************************************************************************

 EIGENVECTORS IN FORTRAN UNIT  8
 TTTTTTTTTTTTTTTTTTTTTTTTTTTTTT END         TELAPSE       14.68 TCPU       13.86
 EEEEEEEEEE TERMINATION  DATE 25 03 2019 TIME 22:20:42.3
NODE    0 CPU TIME =        13.865
NODE    1 CPU TIME =        13.539
NODE    2 CPU TIME =        13.962
NODE    3 CPU TIME =        13.966
NODE    4 CPU TIME =        11.343
NODE    5 CPU TIME =        13.581
NODE    6 CPU TIME =        14.064
NODE    7 CPU TIME =        13.164
    TOTAL CPU TIME =       107.484
