 PROCESS            0  OF            8  WORKING
 PROCESS            4  OF            8  WORKING
 PROCESS            2  OF            8  WORKING
 PROCESS            3  OF            8  WORKING

         
 *******************************************************************************
 *                                                                             *
 *                               CRYSTAL17                                     *
 *                      public : 1.0.1 - Feb 1st, 2017                         *
 *                       HTTP://WWW.CRYSTAL.UNITO.IT                           *
 *                                                                             *
 *                              MAIN AUTHORS                                   *
 *                                                                             *
 *  R. DOVESI(1,11), V.R. SAUNDERS(2), C. ROETTI(1,11), R. ORLANDO(1,11),      *
 *  C.M. ZICOVICH-WILSON(1,3), F. PASCALE(4), B. CIVALLERI(1,11),              *
 *  K. DOLL(5), N.M. HARRISON(2,6), I.J. BUSH(7), Ph. D'ARCO(8),               *
 *  M. LLUNELL(9), M. CAUSA'(10), Y. NOEL(8), L. MASCHIO(1,11), A. ERBA(1,11)  *
 *  M. RE'RAT(14), S. CASASSA(1,11)                                            *
 *                                                                             *
 *        CONTRIBUTIONS TO THE CODE HAVE ALSO BEEN GIVEN BY                    *
 *                                                                             *
 *  M. FERRABONE(1,11), M. DE LA PIERRE(1,11), M. FERRERO(1,11),               *
 *  J. BAIMA(1,11), E. ALBANESE(1,11), M.F. PEINTINGER(12), R. BAST(13),       *
 *  B. KIRTMAN(15), V. LACIVITA(1,11), R. DEMICHELIS(1,16)                     *
 *  G. BRANDEBURG(17), S. SALUSTRO(1,11), G. SANSONE(1,11)                     *
 *  M.T. RUGGIERO(18)                                                          *
 *                                                                             *
 * (1) THEORETICAL CHEMISTRY GROUP - UNIVERSITA' DI TORINO - TORINO (ITALY)    *

 * (2) COMPUTATIONAL SCIENCE & ENGINEERING DEPARTMENT - STFC DARESBURY (UK)    *
 * (3) UNIVERSIDAD AUTONOMA DEL ESTADO DE MORELOS - CUERNAVACA (MEXICO)        *
 * (4) UNIVERSITE' DE LORRAINE - NANCY (FRANCE)                                *
 * (5) UNIVERSITAET STUTTGART- STUTTGART (GERMANY)                             *
 * (6) IMPERIAL COLLEGE - LONDON (UK)                                          *
 * (7) OXFORD E-RESEARCH CENTRE - OXFORD (UK)                                  *
 * (8) UPMC - SORBONNE UNIVERSITES - PARIS (FRANCE)                            *
 * (9) UNIVERSIDAD DE BARCELONA - BARCELONA (SPAIN)                            *
 *(10) UNIVERSITA' DI NAPOLI "FEDERICO II" - NAPOLI (ITALY)                    *
 *(11) NIS - NANOSTRUCTURED INTERFACES AND SURFACES - TORINO (ITALY)           *
 *(12) MPI FUER CHEMISCHE ENERGIEKONVERSION - MUELHEIM AN DER RUHR (GERMANY)   *
 *(13) UNIVERSITY OF TROMSO - TROMSO (NORWAY)                                  *
 *(14) UNIVERSITE' DE PAU ET DES PAYS DE L'ADOUR - PAU (FRANCE)                *
 *(15) UNIVERSITY OF CALIFORNIA SANTA BARBARA - SANTA BARBARA (USA)            *
 *(16) CURTIN UNIVERSITY - PERTH (AUSTRALIA)                                   *
 *(17) UNIVERSITY COLLEGE LONDON - LONDON (UK)                                 *
 *(18) CAMBRIDGE UNIVERSITY - CAMBRIDGE (UK)                                   *
 *                                                                             *
 *******************************************************************************
 EEEEEEEEEE STARTING  DATE 25 03 2019 TIME 17:52:41.0
 PROCESS            7  OF            8  WORKING
 !drive by JGB                                                                   
 PROCESS            6  OF            8  WORKING
 PROCESS            5  OF            8  WORKING
 PROCESS            1  OF            8  WORKING

 CRYSTAL CALCULATION
 (INPUT ACCORDING TO THE INTERNATIONAL TABLES FOR X-RAY CRYSTALLOGRAPHY)
 CRYSTAL FAMILY                       :  TRICLINIC   
 CRYSTAL CLASS  (GROTH - 1921)        :  TRICLINIC PEDIAL                     

 SPACE GROUP (NONCENTROSYMMETRIC)     :  P 1             

 LATTICE PARAMETERS  (ANGSTROMS AND DEGREES) - CONVENTIONAL CELL
        A           B           C        ALPHA        BETA       GAMMA
    12.11329    12.66559    13.85686    77.30418    63.40864    61.42926


 NUMBER OF IRREDUCIBLE ATOMS IN THE CONVENTIONAL CELL:  114

 INPUT COORDINATES

 ATOM AT. N.              COORDINATES
   1   8     6.150991746239E-02  1.940300965910E-01  8.004031017467E-01
   2   8     9.365839938227E-01  8.001924760124E-01  1.936605422221E-01
   3   8     4.422922466745E-01  1.949675536669E-01  7.977126520875E-01
   4   8     5.594955030798E-01  8.063582263417E-01  1.919612765838E-01
   5   8     3.633780143141E-01  1.915016295044E-01  1.953457424986E-01
   6   8     6.337625953174E-01  8.071364485337E-01  8.046908117175E-01
   7   8     7.454408854360E-01  1.908704507354E-01  1.921970439997E-01
   8   8     2.492547890705E-01  8.110101582083E-01  8.101569742443E-01
   9   8     2.734099262455E-01  1.154916325328E-01  6.085121311728E-01
  10   8     7.266682045708E-01  8.728651535314E-01  3.887177171286E-01
  11   8     4.958260127369E-01  1.174727928876E-01  6.079092791920E-01
  12   8     5.034956147763E-01  8.705055147451E-01  3.889113039191E-01
  13   8     3.801090277895E-01  1.153923544255E-01  3.882303197197E-01
  14   8     6.208057233697E-01  8.687037742724E-01  6.091809368992E-01
  15   8     6.105189265564E-01  1.147935749995E-01  3.847817921158E-01
  16   8     3.921563892607E-01  8.698147690908E-01  6.107066718694E-01
  17   8     7.994207981749E-01  3.797070437728E-01  1.001331688480E-01
  18   8     2.139286609002E-01  6.137866421407E-01  8.869010279898E-01
  19   8     2.129244920664E-01  3.825716519238E-01  1.043828520073E-01
  20   8     7.797568856075E-01  6.174646094280E-01  8.944482174259E-01
  21   8     6.024382326922E-01  6.130742173489E-01  1.057137632822E-01
  22   8     4.058050107969E-01  3.793151737040E-01  8.921797695296E-01
  23   8     1.760043977450E-01  6.145082596436E-01  9.724725609109E-02
  24   8     8.218531783671E-01  3.865124847318E-01  8.875411481510E-01
  25   8     3.666605266571E-02  3.895193576804E-01  3.296533656200E-02
  26   8     9.689390265194E-01  6.120383966942E-01  9.472748202753E-01
  27   8     4.184212275452E-01  6.101112666177E-01  4.676164312440E-02
  28   8     5.739588107598E-01  3.891667870281E-01  9.597261182501E-01
  29   8     1.970055057687E-01  1.923976737072E-01  9.106774179489E-01
  30   8     8.081124060959E-01  8.014610650694E-01  7.919968556462E-02
  31   8     6.114883381175E-01  1.896136438042E-01  8.213515799981E-02
  32   8     3.898253831346E-01  8.044866956413E-01  9.183826601038E-01
  33   8     1.366314934703E-02  4.260631073183E-03  8.964166890893E-01
  34   8     9.818477646704E-01  9.970712669157E-01  1.035235009670E-01
  35   8     4.122568361825E-01  9.991744166702E-01  1.003233234979E-01
  36   8     5.866816819835E-01  2.996643717310E-03  8.923567452584E-01
  37   8     2.242229012603E-01  4.165848059400E-04  4.587217201145E-02
  38   8     7.751277115516E-01  9.967078911802E-01  9.496482777869E-01
  39   1     1.268794369508E-01  1.745352922012E-01  7.250241758101E-01
  40   1     4.095506761490E-02  1.242409112710E-01  8.313504503387E-01
  41   1     8.858993647226E-01  8.005775551498E-01  1.539081640400E-01
  42   1     9.573521656136E-01  8.699025128619E-01  1.648602539472E-01
  43   1     3.511252685009E-01  1.950408313770E-01  8.371447013281E-01
  44   1     5.019892405277E-01  1.260575937927E-01  8.282973900703E-01
  45   1     5.663173102932E-01  7.334992868576E-01  1.706195615623E-01
  46   1     4.996892576693E-01  8.750727593286E-01  1.613054762740E-01
  47   1     4.539468953374E-01  1.925720048926E-01  1.562663686818E-01
  48   1     3.732618690264E-01  1.225175347705E-01  1.649928866501E-01
  49   1     6.470740110094E-01  8.199197357377E-01  7.285395946202E-01
  50   1     5.426319931686E-01  8.069145604609E-01  8.441003983767E-01
  51   1     6.977085244958E-01  1.728065777770E-01  2.680255620193E-01
  52   1     8.349622188862E-01  1.201955588246E-01  1.640887519530E-01
  53   1     3.005991836133E-01  8.177759723685E-01  7.325501020046E-01
  54   1     2.404546983881E-01  7.347370329257E-01  8.263965980085E-01
  55   1     3.471028402576E-01  1.258866030957E-01  6.123537680118E-01
  56   1     2.844106211937E-01  1.326918956491E-01  5.331917105740E-01
  57   1     8.107390725427E-01  8.378614255014E-01  3.236498942630E-01
  58   1     6.551543692516E-01  8.613945288779E-01  3.826398450869E-01
  59   1     4.826064447080E-01  1.533781133499E-01  6.707436120796E-01
  60   1     5.461456402493E-01  3.042763006798E-02  6.146726742884E-01
  61   1     5.182918901190E-01  8.372624961632E-01  3.241981664932E-01
  62   1     4.528721207879E-01  9.581411322538E-01  3.837624420637E-01
  63   1     3.598115330885E-01  1.510541074726E-01  3.239956921918E-01
  64   1     4.588884162236E-01  1.264612735557E-01  3.791529498954E-01
  65   1     5.423942990138E-01  8.589810763626E-01  6.149002363419E-01
  66   1     6.835989854341E-01  8.536371472050E-01  5.331276440621E-01
  67   1     6.621312991100E-01  2.623402759534E-02  3.828554507217E-01
  68   1     5.779264283792E-01  1.358206777092E-01  4.594702874040E-01
  69   1     3.399106823167E-01  9.579267481746E-01  6.135279863972E-01
  70   1     4.242005218209E-01  8.498032957875E-01  5.356667243034E-01
  71   1     7.727844977492E-01  3.166150294890E-01  1.437973616123E-01
  72   1     7.197407658522E-01  4.578415123904E-01  1.203500417711E-01
  73   1     1.285558697049E-01  6.168237173918E-01  8.928575182557E-01
  74   1     1.978376612331E-01  6.209956605118E-01  9.619224472590E-01
  75   1     2.576711869588E-01  3.169102637620E-01  1.469454030167E-01
  76   1     2.844750750936E-01  3.725167176000E-01  3.123764984772E-02
  77   1     7.352895840248E-01  6.814752661753E-01  8.507642646785E-01
  78   1     8.009778201478E-01  5.391709933905E-01  8.727555952792E-01
  79   1     5.233141560184E-01  6.155043884037E-01  1.000868273808E-01
  80   1     6.618135010565E-01  6.227197293302E-01  3.097119953213E-02
  81   1     4.225811431858E-01  3.166558480314E-01  8.490475498522E-01
  82   1     3.470729898881E-01  4.576355238129E-01  8.715983171311E-01
  83   1     8.701229177447E-02  6.776841552906E-01  1.413526048592E-01
  84   1     1.758098630161E-01  5.356844574841E-01  1.195472499548E-01
  85   1     9.093549035480E-01  3.216114855573E-01  8.447923454396E-01
  86   1     8.194729021500E-01  3.750042900033E-01  9.605774252829E-01
  87   1     8.383050030720E-02  3.821436630963E-01  7.791460665277E-02
  88   1     9.500074493261E-01  3.825712680923E-01  7.561944931535E-02
  89   1     9.100831560029E-01  6.176029682032E-01  9.134288209347E-01
  90   1     9.931121717020E-01  5.315365033008E-01  9.812247460989E-01
  91   1     3.250772819639E-01  6.154240142690E-01  8.023168065768E-02
  92   1     4.767567734414E-01  5.303159377875E-01  1.256556721223E-02
  93   1     6.660851298002E-01  3.837859486092E-01  9.143550864015E-01
  94   1     5.305499381824E-01  3.824487400111E-01  9.173575035473E-01
  95   1     1.496340980648E-01  1.938888818723E-01  8.676532370346E-01
  96   1     1.375742445735E-01  2.668480575293E-01  9.536269832305E-01
  97   1     7.175500767929E-01  8.009903541708E-01  1.226882429285E-01
  98   1     8.665534057939E-01  7.286774982470E-01  3.382630338389E-02
  99   1     6.577926219999E-01  1.904118000567E-01  1.251163074115E-01
 100   1     5.970658647579E-01  2.644455002829E-01  3.879324619434E-02
 101   1     3.415172458854E-01  8.053624919522E-01  8.765156484404E-01
 102   1     4.032438393800E-01  7.302563152298E-01  9.628670722312E-01
 103   1     9.582507146152E-02  9.304704807346E-01  8.617593184936E-01
 104   1     9.319739150846E-01  9.993078649413E-01  9.025728003651E-01
 105   1     9.915764254856E-01  9.997256234505E-01  2.850353255234E-02
 106   1     6.635388289052E-02  9.981661645486E-01  9.562209499937E-02
 107   1     4.763247946554E-01  1.195692252527E-03  2.506736022616E-02
 108   1     3.342244765544E-01  0.000000000000E+00  9.347050956837E-02
 109   1     6.146834262403E-01  9.293677889715E-01  8.572519150960E-01
 110   1     6.661609672893E-01  9.981264962585E-01  8.997867643848E-01
 111   1     2.140384124810E-01  7.032972089735E-02  9.963147650414E-01
 112   1     2.847583443307E-01  9.287130078130E-01  9.994235544091E-01
 113   1     7.865876854681E-01  9.253043791112E-01  9.975499696643E-01
 114   1     7.152366959304E-01  6.690373856873E-02  9.979705436270E-01

 *******************************************************************************

 << INFORMATION >>: FROM NOW ON, ALL COORDINATES REFER TO THE PRIMITIVE CELL

 *******************************************************************************

 LATTICE PARAMETERS  (ANGSTROMS AND DEGREES) - PRIMITIVE CELL
       A          B          C        ALPHA      BETA     GAMMA        VOLUME
   12.11329   12.66559   13.85686    77.30418  63.40864  61.42926   1669.525475

 COORDINATES OF THE EQUIVALENT ATOMS (FRACTIONAL UNITS)

 N. ATOM EQUIV AT. N.          X                  Y                  Z

   1   1   1    8 O     6.15099174624E-02  1.94030096591E-01 -1.99596898253E-01

   2   2   1    8 O    -6.34160061773E-02 -1.99807523988E-01  1.93660542222E-01

   3   3   1    8 O     4.42292246675E-01  1.94967553667E-01 -2.02287347913E-01

   4   4   1    8 O    -4.40504496920E-01 -1.93641773658E-01  1.91961276584E-01

   5   5   1    8 O     3.63378014314E-01  1.91501629504E-01  1.95345742499E-01

   6   6   1    8 O    -3.66237404683E-01 -1.92863551466E-01 -1.95309188282E-01

   7   7   1    8 O    -2.54559114564E-01  1.90870450735E-01  1.92197044000E-01

   8   8   1    8 O     2.49254789070E-01 -1.88989841792E-01 -1.89843025756E-01

   9   9   1    8 O     2.73409926245E-01  1.15491632533E-01 -3.91487868827E-01

  10  10   1    8 O    -2.73331795429E-01 -1.27134846469E-01  3.88717717129E-01

  11  11   1    8 O     4.95826012737E-01  1.17472792888E-01 -3.92090720808E-01

  12  12   1    8 O    -4.96504385224E-01 -1.29494485255E-01  3.88911303919E-01

  13  13   1    8 O     3.80109027790E-01  1.15392354425E-01  3.88230319720E-01

  14  14   1    8 O    -3.79194276630E-01 -1.31296225728E-01 -3.90819063101E-01

  15  15   1    8 O    -3.89481073444E-01  1.14793575000E-01  3.84781792116E-01

  16  16   1    8 O     3.92156389261E-01 -1.30185230909E-01 -3.89293328131E-01

  17  17   1    8 O    -2.00579201825E-01  3.79707043773E-01  1.00133168848E-01

  18  18   1    8 O     2.13928660900E-01 -3.86213357859E-01 -1.13098972010E-01

  19  19   1    8 O     2.12924492066E-01  3.82571651924E-01  1.04382852007E-01

  20  20   1    8 O    -2.20243114392E-01 -3.82535390572E-01 -1.05551782574E-01

  21  21   1    8 O    -3.97561767308E-01 -3.86925782651E-01  1.05713763282E-01

  22  22   1    8 O     4.05805010797E-01  3.79315173704E-01 -1.07820230470E-01

  23  23   1    8 O     1.76004397745E-01 -3.85491740356E-01  9.72472560911E-02

  24  24   1    8 O    -1.78146821633E-01  3.86512484732E-01 -1.12458851849E-01

  25  25   1    8 O     3.66660526657E-02  3.89519357680E-01  3.29653365620E-02

  26  26   1    8 O    -3.10609734806E-02 -3.87961603306E-01 -5.27251797247E-02

  27  27   1    8 O     4.18421227545E-01 -3.89888733382E-01  4.67616431244E-02

  28  28   1    8 O    -4.26041189240E-01  3.89166787028E-01 -4.02738817499E-02

  29  29   1    8 O     1.97005505769E-01  1.92397673707E-01 -8.93225820511E-02

  30  30   1    8 O    -1.91887593904E-01 -1.98538934931E-01  7.91996855646E-02

  31  31   1    8 O    -3.88511661882E-01  1.89613643804E-01  8.21351579998E-02

  32  32   1    8 O     3.89825383135E-01 -1.95513304359E-01 -8.16173398962E-02

  33  33   1    8 O     1.36631493470E-02  4.26063107318E-03 -1.03583310911E-01

  34  34   1    8 O    -1.81522353296E-02 -2.92873308434E-03  1.03523500967E-01

  35  35   1    8 O     4.12256836182E-01 -8.25583329837E-04  1.00323323498E-01

  36  36   1    8 O    -4.13318318016E-01  2.99664371731E-03 -1.07643254742E-01

  37  37   1    8 O     2.24222901260E-01  4.16584805940E-04  4.58721720115E-02

  38  38   1    8 O    -2.24872288448E-01 -3.29210881979E-03 -5.03517222131E-02

  39  39   1    1 H     1.26879436951E-01  1.74535292201E-01 -2.74975824190E-01

  40  40   1    1 H     4.09550676149E-02  1.24240911271E-01 -1.68649549661E-01

  41  41   1    1 H    -1.14100635277E-01 -1.99422444850E-01  1.53908164040E-01

  42  42   1    1 H    -4.26478343864E-02 -1.30097487138E-01  1.64860253947E-01

  43  43   1    1 H     3.51125268501E-01  1.95040831377E-01 -1.62855298672E-01

  44  44   1    1 H    -4.98010759472E-01  1.26057593793E-01 -1.71702609930E-01

  45  45   1    1 H    -4.33682689707E-01 -2.66500713142E-01  1.70619561562E-01

  46  46   1    1 H     4.99689257669E-01 -1.24927240671E-01  1.61305476274E-01

  47  47   1    1 H     4.53946895337E-01  1.92572004893E-01  1.56266368682E-01

  48  48   1    1 H     3.73261869026E-01  1.22517534770E-01  1.64992886650E-01

  49  49   1    1 H    -3.52925988991E-01 -1.80080264262E-01 -2.71460405380E-01

  50  50   1    1 H    -4.57368006831E-01 -1.93085439539E-01 -1.55899601623E-01

  51  51   1    1 H    -3.02291475504E-01  1.72806577777E-01  2.68025562019E-01

  52  52   1    1 H    -1.65037781114E-01  1.20195558825E-01  1.64088751953E-01

  53  53   1    1 H     3.00599183613E-01 -1.82224027632E-01 -2.67449897995E-01

  54  54   1    1 H     2.40454698388E-01 -2.65262967074E-01 -1.73603401992E-01

  55  55   1    1 H     3.47102840258E-01  1.25886603096E-01 -3.87646231988E-01

  56  56   1    1 H     2.84410621194E-01  1.32691895649E-01 -4.66808289426E-01

  57  57   1    1 H    -1.89260927457E-01 -1.62138574499E-01  3.23649894263E-01

  58  58   1    1 H    -3.44845630748E-01 -1.38605471122E-01  3.82639845087E-01

  59  59   1    1 H     4.82606444708E-01  1.53378113350E-01 -3.29256387920E-01

  60  60   1    1 H    -4.53854359751E-01  3.04276300680E-02 -3.85327325712E-01

  61  61   1    1 H    -4.81708109881E-01 -1.62737503837E-01  3.24198166493E-01

  62  62   1    1 H     4.52872120788E-01 -4.18588677462E-02  3.83762442064E-01

  63  63   1    1 H     3.59811533089E-01  1.51054107473E-01  3.23995692192E-01

  64  64   1    1 H     4.58888416224E-01  1.26461273556E-01  3.79152949895E-01

  65  65   1    1 H    -4.57605700986E-01 -1.41018923637E-01 -3.85099763658E-01

  66  66   1    1 H    -3.16401014566E-01 -1.46362852795E-01 -4.66872355938E-01

  67  67   1    1 H    -3.37868700890E-01  2.62340275953E-02  3.82855450722E-01

  68  68   1    1 H    -4.22073571621E-01  1.35820677709E-01  4.59470287404E-01

  69  69   1    1 H     3.39910682317E-01 -4.20732518254E-02 -3.86472013603E-01

  70  70   1    1 H     4.24200521821E-01 -1.50196704212E-01 -4.64333275697E-01

  71  71   1    1 H    -2.27215502251E-01  3.16615029489E-01  1.43797361612E-01

  72  72   1    1 H    -2.80259234148E-01  4.57841512390E-01  1.20350041771E-01

  73  73   1    1 H     1.28555869705E-01 -3.83176282608E-01 -1.07142481744E-01

  74  74   1    1 H     1.97837661233E-01 -3.79004339488E-01 -3.80775527410E-02

  75  75   1    1 H     2.57671186959E-01  3.16910263762E-01  1.46945403017E-01

  76  76   1    1 H     2.84475075094E-01  3.72516717600E-01  3.12376498477E-02

  77  77   1    1 H    -2.64710415975E-01 -3.18524733825E-01 -1.49235735322E-01

  78  78   1    1 H    -1.99022179852E-01 -4.60829006609E-01 -1.27244404721E-01

  79  79   1    1 H    -4.76685843982E-01 -3.84495611596E-01  1.00086827381E-01

  80  80   1    1 H    -3.38186498943E-01 -3.77280270670E-01  3.09711995321E-02

  81  81   1    1 H     4.22581143186E-01  3.16655848031E-01 -1.50952450148E-01

  82  82   1    1 H     3.47072989888E-01  4.57635523813E-01 -1.28401682869E-01

  83  83   1    1 H     8.70122917745E-02 -3.22315844709E-01  1.41352604859E-01

  84  84   1    1 H     1.75809863016E-01 -4.64315542516E-01  1.19547249955E-01

  85  85   1    1 H    -9.06450964520E-02  3.21611485557E-01 -1.55207654560E-01

  86  86   1    1 H    -1.80527097850E-01  3.75004290003E-01 -3.94225747171E-02

  87  87   1    1 H     8.38305003072E-02  3.82143663096E-01  7.79146066528E-02

  88  88   1    1 H    -4.99925506739E-02  3.82571268092E-01  7.56194493154E-02

  89  89   1    1 H    -8.99168439971E-02 -3.82397031797E-01 -8.65711790653E-02

  90  90   1    1 H    -6.88782829797E-03 -4.68463496699E-01 -1.87752539011E-02

  91  91   1    1 H     3.25077281964E-01 -3.84575985731E-01  8.02316806577E-02

  92  92   1    1 H     4.76756773441E-01 -4.69684062213E-01  1.25655672122E-02

  93  93   1    1 H    -3.33914870200E-01  3.83785948609E-01 -8.56449135985E-02

  94  94   1    1 H    -4.69450061818E-01  3.82448740011E-01 -8.26424964527E-02

  95  95   1    1 H     1.49634098065E-01  1.93888881872E-01 -1.32346762965E-01

  96  96   1    1 H     1.37574244574E-01  2.66848057529E-01 -4.63730167695E-02

  97  97   1    1 H    -2.82449923207E-01 -1.99009645829E-01  1.22688242929E-01

  98  98   1    1 H    -1.33446594206E-01 -2.71322501753E-01  3.38263033839E-02

  99  99   1    1 H    -3.42207378000E-01  1.90411800057E-01  1.25116307412E-01

 100 100   1    1 H    -4.02934135242E-01  2.64445500283E-01  3.87932461943E-02

 101 101   1    1 H     3.41517245885E-01 -1.94637508048E-01 -1.23484351560E-01

 102 102   1    1 H     4.03243839380E-01 -2.69743684770E-01 -3.71329277688E-02

 103 103   1    1 H     9.58250714615E-02 -6.95295192654E-02 -1.38240681506E-01

 104 104   1    1 H    -6.80260849154E-02 -6.92135058727E-04 -9.74271996349E-02

 105 105   1    1 H    -8.42357451444E-03 -2.74376549537E-04  2.85035325523E-02

 106 106   1    1 H     6.63538828905E-02 -1.83383545145E-03  9.56220949994E-02

 107 107   1    1 H     4.76324794655E-01  1.19569225253E-03  2.50673602262E-02

 108 108   1    1 H     3.34224476554E-01  0.00000000000E+00  9.34705095684E-02

 109 109   1    1 H    -3.85316573760E-01 -7.06322110285E-02 -1.42748084904E-01

 110 110   1    1 H    -3.33839032711E-01 -1.87350374148E-03 -1.00213235615E-01

 111 111   1    1 H     2.14038412481E-01  7.03297208973E-02 -3.68523495865E-03

 112 112   1    1 H     2.84758344331E-01 -7.12869921870E-02 -5.76445590942E-04

 113 113   1    1 H    -2.13412314532E-01 -7.46956208888E-02 -2.45003033566E-03

 114 114   1    1 H    -2.84763304070E-01  6.69037385687E-02 -2.02945637303E-03

 NUMBER OF SYMMETRY OPERATORS         :    1
 *******************************************************************************
 * GEOMETRY EDITING - INPUT COORDINATES ARE GIVEN IN ANGSTROM         
 *******************************************************************************

 GCALCO - MAX INDICES DIRECT LATTICE VECTOR    17    14    13
 NO.OF VECTORS CREATED 6999 STARS 3500 RMAX   266.00176 BOHR

 GEOMETRY FOR WAVE FUNCTION - DIMENSIONALITY OF THE SYSTEM    3
 (NON PERIODIC DIRECTION: LATTICE PARAMETER FORMALLY SET TO 500)
 *******************************************************************************
 LATTICE PARAMETERS (ANGSTROMS AND DEGREES) - BOHR = 0.5291772083 ANGSTROM
 PRIMITIVE CELL - CENTRING CODE 1/0 VOLUME=  1669.525475 - DENSITY  0.681 g/cm^3
         A              B              C           ALPHA      BETA       GAMMA 
    12.11328942    12.66558820    13.85686213    77.304177  63.408637  61.429256
 *******************************************************************************
 ATOMS IN THE ASYMMETRIC UNIT  114 - ATOMS IN THE UNIT CELL:  114
     ATOM                 X/A                 Y/B                 Z/C    
 *******************************************************************************
      1 T   8 O     6.150991746239E-02  1.940300965910E-01 -1.995968982533E-01
      2 T   8 O    -6.341600617727E-02 -1.998075239876E-01  1.936605422221E-01
      3 T   8 O     4.422922466745E-01  1.949675536669E-01 -2.022873479125E-01
      4 T   8 O    -4.405044969202E-01 -1.936417736583E-01  1.919612765838E-01
      5 T   8 O     3.633780143141E-01  1.915016295044E-01  1.953457424986E-01
      6 T   8 O    -3.662374046826E-01 -1.928635514663E-01 -1.953091882825E-01
      7 T   8 O    -2.545591145640E-01  1.908704507354E-01  1.921970439997E-01
      8 T   8 O     2.492547890705E-01 -1.889898417917E-01 -1.898430257557E-01
      9 T   8 O     2.734099262455E-01  1.154916325328E-01 -3.914878688272E-01
     10 T   8 O    -2.733317954292E-01 -1.271348464686E-01  3.887177171286E-01
     11 T   8 O     4.958260127369E-01  1.174727928876E-01 -3.920907208080E-01
     12 T   8 O    -4.965043852237E-01 -1.294944852549E-01  3.889113039191E-01
     13 T   8 O     3.801090277895E-01  1.153923544255E-01  3.882303197197E-01
     14 T   8 O    -3.791942766303E-01 -1.312962257276E-01 -3.908190631008E-01
     15 T   8 O    -3.894810734436E-01  1.147935749995E-01  3.847817921158E-01
     16 T   8 O     3.921563892607E-01 -1.301852309092E-01 -3.892933281306E-01
     17 T   8 O    -2.005792018251E-01  3.797070437728E-01  1.001331688480E-01
     18 T   8 O     2.139286609002E-01 -3.862133578593E-01 -1.130989720102E-01
     19 T   8 O     2.129244920664E-01  3.825716519238E-01  1.043828520073E-01
     20 T   8 O    -2.202431143925E-01 -3.825353905720E-01 -1.055517825741E-01
     21 T   8 O    -3.975617673078E-01 -3.869257826511E-01  1.057137632822E-01
     22 T   8 O     4.058050107969E-01  3.793151737040E-01 -1.078202304704E-01
     23 T   8 O     1.760043977450E-01 -3.854917403564E-01  9.724725609109E-02
     24 T   8 O    -1.781468216329E-01  3.865124847318E-01 -1.124588518490E-01
     25 T   8 O     3.666605266571E-02  3.895193576804E-01  3.296533656200E-02
     26 T   8 O    -3.106097348058E-02 -3.879616033058E-01 -5.272517972468E-02
     27 T   8 O     4.184212275452E-01 -3.898887333823E-01  4.676164312440E-02
     28 T   8 O    -4.260411892402E-01  3.891667870281E-01 -4.027388174993E-02
     29 T   8 O     1.970055057687E-01  1.923976737072E-01 -8.932258205106E-02
     30 T   8 O    -1.918875939041E-01 -1.985389349306E-01  7.919968556462E-02
     31 T   8 O    -3.885116618825E-01  1.896136438042E-01  8.213515799981E-02
     32 T   8 O     3.898253831346E-01 -1.955133043587E-01 -8.161733989618E-02
     33 T   8 O     1.366314934703E-02  4.260631073183E-03 -1.035833109107E-01
     34 T   8 O    -1.815223532959E-02 -2.928733084341E-03  1.035235009670E-01
     35 T   8 O     4.122568361825E-01 -8.255833298370E-04  1.003233234979E-01
     36 T   8 O    -4.133183180165E-01  2.996643717310E-03 -1.076432547416E-01
     37 T   8 O     2.242229012603E-01  4.165848059400E-04  4.587217201145E-02
     38 T   8 O    -2.248722884484E-01 -3.292108819785E-03 -5.035172221312E-02
     39 T   1 H     1.268794369508E-01  1.745352922012E-01 -2.749758241899E-01
     40 T   1 H     4.095506761490E-02  1.242409112710E-01 -1.686495496613E-01
     41 T   1 H    -1.141006352774E-01 -1.994224448502E-01  1.539081640400E-01
     42 T   1 H    -4.264783438643E-02 -1.300974871381E-01  1.648602539472E-01
     43 T   1 H     3.511252685009E-01  1.950408313770E-01 -1.628552986719E-01
     44 T   1 H    -4.980107594723E-01  1.260575937927E-01 -1.717026099297E-01
     45 T   1 H    -4.336826897068E-01 -2.665007131424E-01  1.706195615623E-01
     46 T   1 H     4.996892576693E-01 -1.249272406714E-01  1.613054762740E-01
     47 T   1 H     4.539468953374E-01  1.925720048926E-01  1.562663686818E-01
     48 T   1 H     3.732618690264E-01  1.225175347705E-01  1.649928866501E-01
     49 T   1 H    -3.529259889906E-01 -1.800802642623E-01 -2.714604053798E-01
     50 T   1 H    -4.573680068314E-01 -1.930854395391E-01 -1.558996016233E-01
     51 T   1 H    -3.022914755042E-01  1.728065777770E-01  2.680255620193E-01
     52 T   1 H    -1.650377811138E-01  1.201955588246E-01  1.640887519530E-01
     53 T   1 H     3.005991836133E-01 -1.822240276315E-01 -2.674498979954E-01
     54 T   1 H     2.404546983881E-01 -2.652629670743E-01 -1.736034019915E-01
     55 T   1 H     3.471028402576E-01  1.258866030957E-01 -3.876462319882E-01
     56 T   1 H     2.844106211937E-01  1.326918956491E-01 -4.668082894260E-01
     57 T   1 H    -1.892609274573E-01 -1.621385744986E-01  3.236498942630E-01
     58 T   1 H    -3.448456307484E-01 -1.386054711221E-01  3.826398450869E-01
     59 T   1 H     4.826064447080E-01  1.533781133499E-01 -3.292563879204E-01
     60 T   1 H    -4.538543597507E-01  3.042763006798E-02 -3.853273257116E-01
     61 T   1 H    -4.817081098810E-01 -1.627375038368E-01  3.241981664932E-01
     62 T   1 H     4.528721207879E-01 -4.185886774624E-02  3.837624420637E-01
     63 T   1 H     3.598115330885E-01  1.510541074726E-01  3.239956921918E-01
     64 T   1 H     4.588884162236E-01  1.264612735557E-01  3.791529498954E-01
     65 T   1 H    -4.576057009862E-01 -1.410189236374E-01 -3.850997636581E-01
     66 T   1 H    -3.164010145659E-01 -1.463628527950E-01 -4.668723559379E-01
     67 T   1 H    -3.378687008900E-01  2.623402759534E-02  3.828554507217E-01
     68 T   1 H    -4.220735716208E-01  1.358206777092E-01  4.594702874040E-01
     69 T   1 H     3.399106823167E-01 -4.207325182536E-02 -3.864720136028E-01
     70 T   1 H     4.242005218209E-01 -1.501967042125E-01 -4.643332756966E-01
     71 T   1 H    -2.272155022508E-01  3.166150294890E-01  1.437973616123E-01
     72 T   1 H    -2.802592341478E-01  4.578415123904E-01  1.203500417711E-01
     73 T   1 H     1.285558697049E-01 -3.831762826082E-01 -1.071424817443E-01
     74 T   1 H     1.978376612331E-01 -3.790043394882E-01 -3.807755274105E-02
     75 T   1 H     2.576711869588E-01  3.169102637620E-01  1.469454030167E-01
     76 T   1 H     2.844750750936E-01  3.725167176000E-01  3.123764984772E-02
     77 T   1 H    -2.647104159752E-01 -3.185247338247E-01 -1.492357353215E-01
     78 T   1 H    -1.990221798522E-01 -4.608290066095E-01 -1.272444047208E-01
     79 T   1 H    -4.766858439816E-01 -3.844956115963E-01  1.000868273808E-01
     80 T   1 H    -3.381864989435E-01 -3.772802706698E-01  3.097119953213E-02
     81 T   1 H     4.225811431858E-01  3.166558480314E-01 -1.509524501478E-01
     82 T   1 H     3.470729898881E-01  4.576355238129E-01 -1.284016828689E-01
     83 T   1 H     8.701229177447E-02 -3.223158447094E-01  1.413526048592E-01
     84 T   1 H     1.758098630161E-01 -4.643155425159E-01  1.195472499548E-01
     85 T   1 H    -9.064509645197E-02  3.216114855573E-01 -1.552076545604E-01
     86 T   1 H    -1.805270978500E-01  3.750042900033E-01 -3.942257471707E-02
     87 T   1 H     8.383050030720E-02  3.821436630963E-01  7.791460665277E-02
     88 T   1 H    -4.999255067390E-02  3.825712680923E-01  7.561944931535E-02
     89 T   1 H    -8.991684399711E-02 -3.823970317968E-01 -8.657117906525E-02
     90 T   1 H    -6.887828297975E-03 -4.684634966992E-01 -1.877525390114E-02
     91 T   1 H     3.250772819639E-01 -3.845759857310E-01  8.023168065768E-02
     92 T   1 H     4.767567734414E-01 -4.696840622125E-01  1.256556721223E-02
     93 T   1 H    -3.339148701998E-01  3.837859486092E-01 -8.564491359852E-02
     94 T   1 H    -4.694500618176E-01  3.824487400111E-01 -8.264249645266E-02
     95 T   1 H     1.496340980648E-01  1.938888818723E-01 -1.323467629654E-01
     96 T   1 H     1.375742445735E-01  2.668480575293E-01 -4.637301676955E-02
     97 T   1 H    -2.824499232071E-01 -1.990096458292E-01  1.226882429285E-01
     98 T   1 H    -1.334465942061E-01 -2.713225017530E-01  3.382630338389E-02
     99 T   1 H    -3.422073780001E-01  1.904118000567E-01  1.251163074115E-01
    100 T   1 H    -4.029341352421E-01  2.644455002829E-01  3.879324619434E-02
    101 T   1 H     3.415172458854E-01 -1.946375080478E-01 -1.234843515596E-01
    102 T   1 H     4.032438393800E-01 -2.697436847702E-01 -3.713292776880E-02
    103 T   1 H     9.582507146152E-02 -6.952951926540E-02 -1.382406815064E-01
    104 T   1 H    -6.802608491541E-02 -6.921350587270E-04 -9.742719963493E-02
    105 T   1 H    -8.423574514436E-03 -2.743765495370E-04  2.850353255234E-02
    106 T   1 H     6.635388289052E-02 -1.833835451446E-03  9.562209499937E-02
    107 T   1 H     4.763247946554E-01  1.195692252527E-03  2.506736022616E-02
    108 T   1 H     3.342244765544E-01  4.163336342344E-17  9.347050956837E-02
    109 T   1 H    -3.853165737597E-01 -7.063221102848E-02 -1.427480849040E-01
    110 T   1 H    -3.338390327107E-01 -1.873503741483E-03 -1.002132356152E-01
    111 T   1 H     2.140384124810E-01  7.032972089735E-02 -3.685234958647E-03
    112 T   1 H     2.847583443307E-01 -7.128699218698E-02 -5.764455909421E-04
    113 T   1 H    -2.134123145319E-01 -7.469562088878E-02 -2.450030335658E-03
    114 T   1 H    -2.847633040696E-01  6.690373856873E-02 -2.029456373029E-03

 T = ATOM BELONGING TO THE ASYMMETRIC UNIT

 ****    1 SYMMOPS - TRANSLATORS IN FRACTIONAL UNITS
 **** MATRICES AND TRANSLATORS IN THE CRYSTALLOGRAPHIC REFERENCE FRAME
   V INV                    ROTATION MATRICES                   TRANSLATORS
   1   1  1.00  0.00  0.00  0.00  1.00  0.00  0.00  0.00  1.00  0.00  0.00  0.00

 DIRECT LATTICE VECTORS CARTESIAN COMPONENTS (ANGSTROM)
          X                    Y                    Z
   0.106382213100E+02   0.579310175398E+01   0.000000000000E+00
   0.000000000000E+00   0.126655882000E+02   0.000000000000E+00
   0.540432848248E+01   0.304539305185E+01   0.123907805607E+02


 CARTESIAN COORDINATES - PRIMITIVE CELL
 *******************************************************************************
 *      ATOM          X(ANGSTROM)         Y(ANGSTROM)         Z(ANGSTROM)
 *******************************************************************************
    1     8 O    -4.243310875205E-01  2.205987505455E+00 -2.473161366850E+00
    2     8 O     3.719716759535E-01 -2.308282725004E+00  2.399605281937E+00
    3     8 O     3.611975527854E+00  4.415578253279E+00 -2.506498138186E+00
    4     8 O    -3.648762531715E+00 -4.419876799286E+00  2.378550054298E+00
    5     8 O    -5.716813014426E+00 -6.676305960550E-01  2.420486228764E+00
    6     8 O     5.686591737865E+00  6.339276359217E-01 -2.420033293494E+00
    7     8 O    -1.669360238075E+00  1.528115217873E+00  2.381471396612E+00
    8     8 O     1.625653537419E+00 -1.527855785943E+00 -2.352303273115E+00
    9     8 O     7.928662637028E-01  1.854426545885E+00 -4.850840274807E+00
   10     8 O    -8.070059005135E-01 -2.009878279887E+00  4.816515932990E+00
   11     8 O     3.155719804574E+00  3.166162206631E+00 -4.858310081412E+00
   12     8 O    -3.180119094469E+00 -3.332036466568E+00  4.818914624431E+00
   13     8 O    -4.496413175826E+00 -9.472655176166E-01  4.810476698650E+00
   14     8 O     4.492154081513E+00  7.432491383574E-01 -4.842553249814E+00
   15     8 O    -2.063898656680E+00  3.694364554283E-01  4.767746749853E+00
   16     8 O     2.067977435832E+00 -5.626218545768E-01 -4.823648202604E+00
   17     8 O    -1.592653402753E+00  3.952182183830E+00  1.240728122041E+00
   18     8 O     1.664596443436E+00 -3.996739670828E+00 -1.401384543817E+00
   19     8 O     2.829257089109E+00 -6.268713139049E+00  1.293385013521E+00
   20     8 O    -2.913431497855E+00  6.223215033538E+00 -1.307868975665E+00
   21     8 O    -3.658038163122E+00  5.783769761656E+00  1.309876043074E+00
   22     8 O     3.734347571048E+00 -5.838823672755E+00 -1.335976815761E+00
   23     8 O     2.397929850682E+00 -3.566712134559E+00  1.204969410353E+00
   24     8 O    -2.502929890360E+00  3.520903894864E+00 -1.393452955367E+00
   25     8 O     5.682170901389E-01  5.246294361236E+00  4.084662514488E-01
   26     8 O    -6.153777005208E-01 -5.254270180825E+00 -6.533061319911E-01
   27     8 O     4.703972899256E+00 -2.371805810580E+00  5.794132586114E-01
   28     8 O    -4.749973744557E+00  2.338276505307E+00 -4.990248310903E-01
   29     8 O     1.613059595350E+00  3.306080276075E+00 -1.106776513308E+00
   30     8 O    -1.613321574096E+00 -3.385042576184E+00  9.813459243063E-01
   31     8 O    -3.689187666833E+00  4.010145791168E-01  1.017718719093E+00
   32     8 O     3.705961783379E+00 -4.665497696752E-01 -1.011302548600E+00
   33     8 O    -4.144466309193E-01 -1.823364822427E-01 -1.283478075243E+00
   34     8 O     3.663675081749E-01  1.730178770275E-01  1.282736983356E+00
   35     8 O     4.927859654510E+00  2.683313254618E+00  1.243084286581E+00
   36     8 O    -4.978711246087E+00 -2.684256837817E+00 -1.333783948341E+00
   37     8 O     2.633241132134E+00  1.443921168093E+00  5.683920172358E-01
   38     8 O    -2.664358417500E+00 -1.497745328230E+00 -6.238971407952E-01
   39     1 H    -1.362881486921E-01  2.108208161716E+00 -3.407165097030E+00
   40     1 H    -4.757484917390E-01  1.297236927049E+00 -2.089699561511E+00
   41     1 H    -3.820575350853E-01 -2.718088301275E+00  1.907042287117E+00
   42     1 H     4.372618654409E-01 -1.392760170237E+00  2.042747229838E+00
   43     1 H     2.855224784712E+00  4.008452866194E+00 -2.017904268988E+00
   44     1 H     4.412335330616E+00  3.981766386978E+00 -2.127529361335E+00
   45     1 H    -3.691528275200E+00 -5.368152610789E+00  2.114109546678E+00
   46     1 H    -4.450668620880E+00 -3.989389447568E+00  1.998700759748E+00
   47     1 H    -4.964518987296E+00 -2.484109721487E-01  1.936262283351E+00
   48     1 H    -5.775703183987E+00 -1.576532932539E+00  2.044390652555E+00
   49     1 H     5.416655332412E+00  6.410394856452E-01 -3.363606313975E+00
   50     1 H     4.930106575757E+00  2.232061232037E-01 -1.931717753212E+00
   51     1 H    -1.767345437688E+00  1.253734859709E+00  3.321045923635E+00
   52     1 H    -8.689189241664E-01  1.065981537382E+00  2.033187717926E+00
   53     1 H     1.752453539512E+00 -1.381062897363E+00 -3.313912997038E+00
   54     1 H     1.619800486445E+00 -2.495423564890E+00 -2.151081658665E+00
   55     1 H     1.597589259331E+00  2.424694805943E+00 -4.803239395741E+00
   56     1 H     5.028377967709E-01  1.906625855093E+00 -5.784119078185E+00
   57     1 H    -2.642892897097E-01 -2.164347087527E+00  4.010274818301E+00
   58     1 H    -1.600632724354E+00 -2.587956922253E+00  4.741206354245E+00
   59     1 H     3.354664489162E+00  3.735697147854E+00 -4.079743650925E+00
   60     1 H     3.727582747045E+00  2.375787938391E+00 -4.774506336927E+00
   61     1 H    -3.372444094591E+00 -3.864439460891E+00  4.017068339193E+00
   62     1 H    -3.746489167781E+00 -2.531027183486E+00  4.755116207043E+00
   63     1 H    -5.059487443605E+00 -8.087935795473E-01  4.014559524555E+00
   64     1 H    -3.707397695285E+00 -3.783382917712E-01  4.698001001089E+00
   65     1 H     3.688904968860E+00  1.832776052547E-01 -4.771686665458E+00
   66     1 H    -4.847471040588E-01 -2.063131670746E+00  6.605867648407E+00
   67     1 H    -1.525245396783E+00 -4.590930439008E-01  4.743877876354E+00
   68     1 H    -2.006983702935E+00  6.744012456353E-01  5.693195505377E+00
   69     1 H     1.527423353324E+00  2.592955031109E-01 -4.788689913397E+00
   70     1 H     2.003329483739E+00 -8.589701491010E-01 -5.753451726180E+00
   71     1 H    -1.640040620941E+00  3.131752542746E+00  1.781761552943E+00
   72     1 H    -2.331048598426E+00  4.541774976890E+00  1.491230958055E+00
   73     1 H     7.885726268465E-01 -4.434706738712E+00 -1.327578980021E+00
   74     1 H     1.898857220830E+00 -3.770180302226E+00 -4.718106003022E-01
   75     1 H     3.535304338973E+00  5.954076811633E+00  1.820768243181E+00
   76     1 H     3.195127326825E+00 -6.204320878972E+00  3.870588644945E-01
   77     1 H     7.015654386797E+00 -2.291772026755E-01 -1.849147248181E+00
   78     1 H    -2.804912555537E+00  5.288452806463E+00 -1.576657496470E+00
   79     1 H     6.108033898319E+00 -1.533447197385E+00  1.240153915090E+00
   80     1 H    -3.430324284049E+00  6.022282331372E+00  3.837573371037E-01
   81     1 H    -6.958506213195E+00  2.058768372553E-01 -1.870418684879E+00
   82     1 H     2.998314405228E+00 -5.249769556069E+00 -1.590997076051E+00
   83     1 H     1.689571925102E+00 -3.147774458629E+00  1.751469108491E+00
   84     1 H     2.516376839181E+00 -4.498276666180E+00  1.481283740823E+00
   85     1 H    -1.803095744963E+00  3.075614056421E+00 -1.923143988996E+00
   86     1 H    -2.133539762778E+00  3.583780828090E+00 -4.884764724563E-01
   87     1 H     1.312883542732E+00  5.562993490122E+00  9.654227935064E-01
   88     1 H    -1.231594741560E-01  4.786169151344E+00  9.369840025862E-01
   89     1 H    -1.424414374723E+00 -5.627824027528E+00 -1.072684482677E+00
   90     1 H    -1.747418812030E-01 -6.030445653895E+00 -2.326400510601E-01
   91     1 H     3.891842425364E+00 -2.743338291740E+00  9.941331490441E-01
   92     1 H     5.139752519698E+00 -3.148657324560E+00  1.556971859473E-01
   93     1 H    -4.015113533828E+00  2.665649536996E+00 -1.061207330538E+00
   94     1 H    -5.440740849055E+00  1.872687387583E+00 -1.024005038532E+00
   95     1 H     8.765952700783E-01  2.919514377938E+00 -1.639879697821E+00
   96     1 H     1.212930244984E+00  4.035545143114E+00 -5.745978747284E-01
   97     1 H    -2.341717226347E+00 -3.783201444885E+00  1.520203095503E+00
   98     1 H    -1.236825947397E+00 -4.106514386260E+00  4.191343024089E-01
   99     1 H    -2.964308197315E+00  8.102636194851E-01  1.550288709699E+00
  100     1 H    -4.076851058726E+00  1.133260044735E+00  4.806786008306E-01
  101     1 H     2.965786044639E+00 -8.628127553057E-01 -1.530067502853E+00
  102     1 H     4.089118666043E+00 -1.193514197877E+00 -4.601059595589E-01
  103     1 H     2.723102647520E-01 -7.465050801429E-01 -1.712909949105E+00
  104     1 H    -1.250205136139E+00 -6.995524463019E-01 -1.207199051318E+00
  105     1 H     6.443060291810E-02  3.453069530551E-02  3.531810170603E-01
  106     1 H     1.222660502528E+00  6.523750544164E-01  1.184832395890E+00
  107     1 H     5.202720829839E+00  2.850882113729E+00  3.106041597979E-01
  108     1 H     4.060699285940E+00  2.220850841743E+00  1.158172572957E+00
  109     1 H    -4.870540527136E+00 -3.561500643759E+00 -1.768760195503E+00
  110     1 H    -4.093038755452E+00 -2.262881204271E+00 -1.241720211784E+00
  111     1 H     2.257071780564E+00  2.119490596932E+00 -4.566293768715E-02
  112     1 H     3.026206985536E+00  7.449868735488E-01 -7.142610822536E-03
  113     1 H    -2.283568200997E+00 -2.189844533518E+00 -3.035778825615E-02
  114     1 H    -3.040342898542E+00 -8.084680868607E-01 -2.514654857568E-02

 *******************************************************************************
 STARTING BASIS SET HANDLING 
 *******************************************************************************

 Loading internal basis set: DEF2-MSVP           

 Please cite in your publication:
 Fully Optimized Contracted Gaussian Basis Sets for Atoms Li to Kr. A. Schäfer, 
 H. Horn and R. Ahlrichs; J. Chem. Phys. 97, 2571 (1992).                       
                                                                                
                    
 S. Grimme, J. G. Brandenburg, C. Bannwarth, and A. Hansen, J. Chem. Phys., 143,
  054107 (2015).                                                                
                                                                                
                    

 *******************************************************************************
 LOCAL ATOMIC FUNCTIONS BASIS SET
 *******************************************************************************
   ATOM   X(AU)   Y(AU)   Z(AU)  N. TYPE  EXPONENT  S COEF   P COEF   D/F/G COEF
 *******************************************************************************
   1 O   -0.802   4.169  -4.674
                                  1 S  
                                         6.773E+03 1.727E-03 0.000E+00 0.000E+00
                                         1.017E+03 1.325E-02 0.000E+00 0.000E+00
                                         2.313E+02 6.603E-02 0.000E+00 0.000E+00
                                         6.501E+01 2.353E-01 0.000E+00 0.000E+00
                                         2.050E+01 5.498E-01 0.000E+00 0.000E+00
                                  2 S  
                                         6.716E+00 1.000E+00 0.000E+00 0.000E+00
                                  3 S  
                                         1.147E+00 1.000E+00 0.000E+00 0.000E+00
                                  4 S  
                                         3.342E-01 1.000E+00 0.000E+00 0.000E+00
                           5-     7 P  
                                         1.769E+01 0.000E+00 4.359E-02 0.000E+00
                                         3.854E+00 0.000E+00 2.318E-01 0.000E+00
                                         1.047E+00 0.000E+00 5.146E-01 0.000E+00
                           8-    10 P  
                                         2.759E-01 0.000E+00 1.000E+00 0.000E+00
                          11-    15 D  
                                         8.000E-01 0.000E+00 0.000E+00 1.000E+00
   2 O    0.703  -4.362   4.535
   3 O    6.826   8.344  -4.737
   4 O   -6.895  -8.352   4.495
   5 O  -10.803  -1.262   4.574
   6 O   10.746   1.198  -4.573
   7 O   -3.155   2.888   4.500
   8 O    3.072  -2.887  -4.445
   9 O    1.498   3.504  -9.167
  10 O   -1.525  -3.798   9.102
  11 O    5.963   5.983  -9.181
  12 O   -6.010  -6.297   9.106
  13 O   -8.497  -1.790   9.090
  14 O    8.489   1.405  -9.151
  15 O   -3.900   0.698   9.010
  16 O    3.908  -1.063  -9.115
  17 O   -3.010   7.469   2.345
  18 O    3.146  -7.553  -2.648
  19 O    5.347 -11.846   2.444
  20 O   -5.506  11.760  -2.472
  21 O   -6.913  10.930   2.475
  22 O    7.057 -11.034  -2.525
  23 O    4.531  -6.740   2.277
  24 O   -4.730   6.654  -2.633
  25 O    1.074   9.914   0.772
  26 O   -1.163  -9.929  -1.235
  27 O    8.889  -4.482   1.095
  28 O   -8.976   4.419  -0.943
  29 O    3.048   6.248  -2.092
  30 O   -3.049  -6.397   1.854
  31 O   -6.972   0.758   1.923
  32 O    7.003  -0.882  -1.911
  33 O   -0.783  -0.345  -2.425
  34 O    0.692   0.327   2.424
  35 O    9.312   5.071   2.349
  36 O   -9.408  -5.073  -2.520
  37 O    4.976   2.729   1.074
  38 O   -5.035  -2.830  -1.179
  39 H   -0.258   3.984  -6.439
                                571 S  
                                         1.874E+01 1.968E-02 0.000E+00 0.000E+00
                                         2.826E+00 1.380E-01 0.000E+00 0.000E+00
                                         6.401E-01 4.783E-01 0.000E+00 0.000E+00
                                572 S  
                                         1.756E-01 1.000E+00 0.000E+00 0.000E+00
  40 H   -0.899   2.451  -3.949
  41 H   -0.722  -5.136   3.604
  42 H    0.826  -2.632   3.860
  43 H    5.396   7.575  -3.813
  44 H    8.338   7.524  -4.020
  45 H   -6.976 -10.144   3.995
  46 H   -8.411  -7.539   3.777
  47 H   -9.382  -0.469   3.659
  48 H  -10.914  -2.979   3.863
  49 H   10.236   1.211  -6.356
  50 H    9.317   0.422  -3.650
  51 H   -3.340   2.369   6.276
  52 H   -1.642   2.014   3.842
  53 H    3.312  -2.610  -6.262
  54 H    3.061  -4.716  -4.065
  55 H    3.019   4.582  -9.077
  56 H    0.950   3.603 -10.930
  57 H   -0.499  -4.090   7.578
  58 H   -3.025  -4.891   8.960
  59 H    6.339   7.059  -7.710
  60 H    7.044   4.490  -9.023
  61 H   -6.373  -7.303   7.591
  62 H   -7.080  -4.783   8.986
  63 H   -9.561  -1.528   7.586
  64 H   -7.006  -0.715   8.878
  65 H    6.971   0.346  -9.017
  66 H   -0.916  -3.899  12.483
  67 H   -2.882  -0.868   8.965
  68 H   -3.793   1.274  10.759
  69 H    2.886   0.490  -9.049
  70 H    3.786  -1.623 -10.872
  71 H   -3.099   5.918   3.367
  72 H   -4.405   8.583   2.818
  73 H    1.490  -8.380  -2.509
  74 H    3.588  -7.125  -0.892
  75 H    6.681  11.252   3.441
  76 H    6.038 -11.724   0.731
  77 H   13.258  -0.433  -3.494
  78 H   -5.301   9.994  -2.979
  79 H   11.543  -2.898   2.344
  80 H   -6.482  11.380   0.725
  81 H  -13.150   0.389  -3.535
  82 H    5.666  -9.921  -3.007
  83 H    3.193  -5.948   3.310
  84 H    4.755  -8.501   2.799
  85 H   -3.407   5.812  -3.634
  86 H   -4.032   6.772  -0.923
  87 H    2.481  10.513   1.824
  88 H   -0.233   9.045   1.771
  89 H   -2.692 -10.635  -2.027
  90 H   -0.330 -11.396  -0.440
  91 H    7.355  -5.184   1.879
  92 H    9.713  -5.950   0.294
  93 H   -7.587   5.037  -2.005
  94 H  -10.282   3.539  -1.935
  95 H    1.657   5.517  -3.099
  96 H    2.292   7.626  -1.086
  97 H   -4.425  -7.149   2.873
  98 H   -2.337  -7.760   0.792
  99 H   -5.602   1.531   2.930
 100 H   -7.704   2.142   0.908
 101 H    5.605  -1.630  -2.891
 102 H    7.727  -2.255  -0.869
 103 H    0.515  -1.411  -3.237
 104 H   -2.363  -1.322  -2.281
 105 H    0.122   0.065   0.667
 106 H    2.310   1.233   2.239
 107 H    9.832   5.387   0.587
 108 H    7.674   4.197   2.189
 109 H   -9.204  -6.730  -3.342
 110 H   -7.735  -4.276  -2.347
 111 H    4.265   4.005  -0.086
 112 H    5.719   1.408  -0.013
 113 H   -4.315  -4.138  -0.057
 114 H   -5.745  -1.528  -0.048

 *******************************************************************************
 FINISHED BASIS SET HANDLING 
 *******************************************************************************

 INFORMATION **** SET_MPP **** PCRYSTAL CALCULATION
 INFORMATION **** READM2 **** NEW DEFAULT: FOCK/KS MATRIX MIXING SET TO 30 %
 INFORMATION **** READM2 **** NEW DEFAULT: FULL DIRECT SCF MODE
 INFORMATION **** READM2 **** NEW DEFAULT: COULOMB BIPOLAR BUFFER SET TO 32 Mb
 INFORMATION **** READM2 **** NEW DEFAULT: EXCHANGE BIPOLAR BUFFER SET TO 32 Mb

 *******************************************************************************
 NEW DEFAULT: DFT INTEGRATION GRID INCREASED TO XLGRID
 NEW DEFAULT: DIIS ACCELERATOR ACTIVE
 USE KEYWORD NODIIS TO TURN IT OFF
 *******************************************************************************

 INFORMATION **** RDDFTP **** HSE-3c calculation
 INFORMATION **** RDDFTP **** HSE screened hybrid functional combined with D3 and gCP

PLEASE CITE:
(1) HSE-3c Reference
 J. G. Brandenburg, E. Caldeweyer, and S. Grimme, 
 Phys. Chem. Chem. Phys. 18, 15519 (2016)
(2) DFT-D3 Reference
 S. Grimme, J. Antony, S. Ehrlich,
 and H. Krieg, J. Chem. Phys. 132, 154104 (2010)
(3) gCP Reference
 H. Kruse and S. Grimme J. Chem. Phys, 136, 154101 (2012)
 J. G. Brandenburg, M. Alessio, B. Civalleri, M. F. Peintinger
 T. Bredow, and S. Grimme, J. Phys. Chem. A, 117, 9282 (2013) 

 WARNING **** RDDFTP **** HSE3c-HJS ACTIVE
 RANGE SEPARATION - OMEGA:   0.110000000000000     
 WARNING **** RDDFTP **** HSE-3c has to be combined with def2-mSVP basis set
 WARNING **** RDDFTP **** Note: Harmonic frequencies are scaled by 0.95
 WARNING **** RDDFTP **** as recommended in original publication
 INFORMATION **** BIPOSIZE **** COULOMB BIPOLAR BUFFER SET TO    60000000
 INFORMATION **** EXCHSIZE **** EXCHANGE BIPOLAR BUFFER SIZE SET TO    40000000
 *******************************************************************************
 N. OF ATOMS PER CELL       114  COULOMB OVERLAP TOL         (T1) 10**   -6
 NUMBER OF SHELLS           418  COULOMB PENETRATION TOL     (T2) 10**   -6
 NUMBER OF AO               722  EXCHANGE OVERLAP TOL        (T3) 10**   -6
 N. OF ELECTRONS PER CELL   380  EXCHANGE PSEUDO OVP (F(G))  (T4) 10**   -6
 CORE ELECTRONS PER CELL     76  EXCHANGE PSEUDO OVP (P(G))  (T5) 10**  -12
 N. OF SYMMETRY OPERATORS     1  POLE ORDER IN MONO ZONE                  4
 *******************************************************************************
 TYPE OF CALCULATION :  RESTRICTED CLOSED SHELL
 KOHN-SHAM HAMILTONIAN

 (EXCHANGE)[CORRELATION] FUNCTIONAL:(HSE-3c)[PBEh-3c]

 RANGE-SEPARATED HYBRID FUNCTIONAL 
 OMEGA (SHORT-RANGE)[LONG-RANGE]:(    0.1100)[    0.0000]

 HYBRID EXCHANGE - PERCENTAGE OF FOCK EXCHANGE    42.0000

 CAPPA:IS1  1;IS2  1;IS3  1; K PTS MONK NET   1; SYMMOPS:K SPACE   2;G SPACE   1

 *******************************************************************************
 MAX NUMBER OF SCF CYCLES      50  CONVERGENCE ON DELTAP        10**-16
 WEIGHT OF F(I) IN F(I+1)      30% CONVERGENCE ON ENERGY        10**- 6
 S(K) EIGENV. THRESHOLD  10*10.**-4
 SHRINK. FACT.(MONKH.)    1  1  1  NUMBER OF K POINTS IN THE IBZ      1
 SHRINKING FACTOR(GILAT NET)    1  NUMBER OF K POINTS(GILAT NET)      1
 *******************************************************************************
 *** K POINTS COORDINATES (OBLIQUE COORDINATES IN UNITS OF IS =  1)
   1-R(  0  0  0)

 DIRECT LATTICE VECTORS COMPON. (A.U.)     RECIP. LATTICE VECTORS COMPON. (A.U.) 
        X            Y            Z              X            Y            Z
   20.1033248   10.9473758    0.0000000      0.3125446    0.0000000   -0.1363186
    0.0000000   23.9344930    0.0000000     -0.1429545    0.2625159   -0.0021703
   10.2127008    5.7549588   23.4151818      0.0000000    0.0000000    0.2683381

 DISK SPACE FOR EIGENVECTORS (FTN 10)      521284 REALS

 SYMMETRY ADAPTION OF THE BLOCH FUNCTIONS DISABLED
 TTTTTTTTTTTTTTTTTTTTTTTTTTTTTT gordsh1     TELAPSE        0.11 TCPU        0.06

 MATRIX SIZE: P(G)  279900, F(G)   58139, P(G) IRR  140919, F(G) IRR   58747
 MAX G-VECTOR INDEX FOR 1- AND 2-ELECTRON INTEGRALS  33

 TTTTTTTTTTTTTTTTTTTTTTTTTTTTTT INPUT       TELAPSE        0.57 TCPU        0.53

 NEIGHBORS OF THE NON-EQUIVALENT ATOMS

 N = NUMBER OF NEIGHBORS AT DISTANCE R
    ATOM  N     R/ANG      R/AU   NEIGHBORS (ATOM LABELS AND CELL INDICES)
   1 O    1     0.9823     1.8563   39 H    0 0 0
   1 O    1     0.9877     1.8664   40 H    0 0 0
   1 O    1     1.7017     3.2158   95 H    0 0 0
   1 O    1     1.7204     3.2511   85 H    0 0 0
   1 O    1     2.6682     5.0423   33 O    0 0 0
   1 O    1     2.6861     5.0761   24 O    0 0 0

   2 O    1     0.9848     1.8610   42 H    0 0 0
   2 O    1     0.9895     1.8699   41 H    0 0 0
   2 O    1     1.6914     3.1963   83 H    0 0 0
   2 O    1     1.7378     3.2839   57 H    0 0 0
   2 O    1     2.6669     5.0397   30 O    0 0 0
   2 O    1     2.6675     5.0408   23 O    0 0 0

   3 O    1     0.9861     1.8635   44 H    0 0 0
   3 O    1     0.9885     1.8680   43 H    0 0 0
   3 O    1     1.7077     3.2271   81 H    1 0 0
   3 O    1     1.7331     3.2750   59 H    0 0 0
   3 O    1     2.6806     5.0657   29 O    0 0 0
   3 O    1     2.6831     5.0703   22 O    0 1 0

   4 O    1     0.9854     1.8621   45 H    0 0 0
   4 O    1     0.9862     1.8637   46 H    0 0 0
   4 O    1     1.6883     3.1905   97 H    0 0 0
   4 O    1     1.7520     3.3109   61 H    0 0 0
   4 O    1     2.6770     5.0587   30 O    0 0 0
   4 O    1     2.6839     5.0718   21 O    0-1 0

   5 O    1     0.9854     1.8621   48 H    0 0 0
   5 O    1     0.9880     1.8671   47 H    0 0 0
   5 O    1     1.7227     3.2553   75 H   -1 0 0
   5 O    1     1.7301     3.2693   63 H    0 0 0
   5 O    1     2.6872     5.0781   31 O    0 0 0
   5 O    1     2.6952     5.0931   19 O   -1 1 0

   6 O    1     0.9815     1.8547   49 H    0 0 0
   6 O    1     0.9897     1.8702   50 H    0 0 0
   6 O    1     1.6844     3.1831   77 H    0 0 0
   6 O    1     1.7272     3.2640  109 H    1 0 0
   6 O    1     2.6529     5.0132   20 O    1-1 0
   6 O    1     2.6680     5.0419   32 O    0 0 0

   7 O    1     0.9837     1.8589   51 H    0 0 0
   7 O    1     0.9877     1.8665   52 H    0 0 0
   7 O    1     1.6980     3.2087   99 H    0 0 0
   7 O    1     1.7124     3.2359   71 H    0 0 0
   7 O    1     2.6802     5.0648   17 O    0 0 0
   7 O    1     2.6810     5.0663   34 O    0 0 0

   8 O    1     0.9810     1.8538   53 H    0 0 0
   8 O    1     0.9883     1.8676   54 H    0 0 0
   8 O    1     1.6885     3.1907  103 H    0 0 0
   8 O    1     1.7071     3.2260  101 H    0 0 0
   8 O    1     2.6460     5.0002   18 O    0 0 0
   8 O    1     2.6674     5.0406   33 O    0 0 0

   9 O    1     0.9787     1.8495   56 H    0 0 0
   9 O    1     0.9874     1.8660   55 H    0 0 0
   9 O    1     1.7355     3.2796   39 H    0 0 0
   9 O    1     1.7572     3.3207   69 H    0 0 0
   9 O    1     2.6942     5.0912    1 O    0 0 0
   9 O    1     2.7026     5.1071   11 O    0 0 0

  10 O    1     0.9841     1.8597   57 H    0 0 0
  10 O    1     0.9847     1.8609   58 H    0 0 0
  10 O    1     1.7106     3.2325   67 H    0 0 0
  10 O    1     1.8189     3.4373   66 H    0 0 0
  10 O    1     2.6913     5.0859   15 O    0 0 0
  10 O    1     2.7056     5.1129    2 O    0 0 0

  11 O    1     0.9792     1.8503   60 H    0 0 0
  11 O    1     0.9849     1.8613   59 H    0 0 0
  11 O    1     1.7264     3.2625   55 H    0 0 0
  11 O    1     1.8584     3.5118   68 H    1 0-1
  11 O    1     2.7019     5.1058    3 O    0 0 0
  11 O    1     2.7026     5.1071    9 O    0 0 0

  12 O    1     0.9815     1.8548   61 H    0 0 0
  12 O    1     0.9831     1.8578   62 H    0 0 0
  12 O    1     1.7477     3.3027   58 H    0 0 0
  12 O    1     1.8397     3.4766   70 H   -1 0 1
  12 O    1     2.7126     5.1261    4 O    0 0 0
  12 O    1     2.7166     5.1336   10 O    0 0 0

  13 O    1     0.9792     1.8505   64 H    0 0 0
  13 O    1     0.9847     1.8609   63 H    0 0 0
  13 O    1     1.7532     3.3131   62 H    0 0 0
  13 O    1     1.8146     3.4290   56 H   -1 0 1
  13 O    1     2.6981     5.0986    5 O    0 0 0
  13 O    1     2.7239     5.1475   12 O    0 0 0

  14 O    1     0.9785     1.8492   66 H    1 0-1
  14 O    1     0.9817     1.8552   65 H    0 0 0
  14 O    1     1.7471     3.3016   49 H    0 0 0
  14 O    1     1.8040     3.4090   60 H    0 0 0
  14 O    1     2.7032     5.1083    6 O    0 0 0
  14 O    1     2.7325     5.1637   10 O    1 0-1

  15 O    1     0.9761     1.8445   68 H    0 0 0
  15 O    1     0.9885     1.8680   67 H    0 0 0
  15 O    1     1.7213     3.2528   51 H    0 0 0
  15 O    1     1.8070     3.4147   64 H    0 0 0
  15 O    1     2.6819     5.0680    7 O    0 0 0
  15 O    1     2.6913     5.0859   10 O    0 0 0

  16 O    1     0.9780     1.8482   70 H    0 0 0
  16 O    1     0.9844     1.8602   69 H    0 0 0
  16 O    1     1.7461     3.2996   53 H    0 0 0
  16 O    1     1.7851     3.3733   65 H    0 0 0
  16 O    1     2.6898     5.0829    8 O    0 0 0
  16 O    1     2.7329     5.1644    9 O    0 0 0

  17 O    1     0.9775     1.8473   72 H    0 0 0
  17 O    1     0.9839     1.8593   71 H    0 0 0
  17 O    1     1.7167     3.2442   88 H    0 0 0
  17 O    1     1.8489     3.4939   86 H    0 0 0
  17 O    1     2.6527     5.0129   25 O    0 0 0
  17 O    1     2.6802     5.0648    7 O    0 0 0

  18 O    1     0.9822     1.8561   73 H    0 0 0
  18 O    1     0.9850     1.8615   74 H    0 0 0
  18 O    1     1.6787     3.1723   54 H    0 0 0
  18 O    1     1.8398     3.4767   82 H    0 0 0
  18 O    1     2.6460     5.0002    8 O    0 0 0
  18 O    1     2.7091     5.1195   26 O    0 0 0

  19 O    1     0.9795     1.8510   76 H    0 0 0
  19 O    1     0.9863     1.8638   75 H    0-1 0
  19 O    1     1.7613     3.3284   87 H    0-1 0
  19 O    1     1.8077     3.4160   84 H    0 0 0
  19 O    1     2.6869     5.0774   25 O    0-1 0
  19 O    1     2.6952     5.0931    5 O    1-1 0

  20 O    1     0.9787     1.8494   78 H    0 0 0
  20 O    1     0.9861     1.8634   77 H   -1 1 0
  20 O    1     1.7135     3.2380   89 H    0 1 0
  20 O    1     1.7802     3.3641   80 H    0 0 0
  20 O    1     2.6529     5.0132    6 O   -1 1 0
  20 O    1     2.6685     5.0428   26 O    0 1 0

  21 O    1     0.9815     1.8547   79 H   -1 1 0
  21 O    1     0.9831     1.8577   80 H    0 0 0
  21 O    1     1.7144     3.2397   45 H    0 1 0
  21 O    1     1.8266     3.4517   72 H    0 0 0
  21 O    1     2.6839     5.0718    4 O    0 1 0
  21 O    1     2.7131     5.1271   27 O   -1 1 0

  22 O    1     0.9766     1.8455   82 H    0 0 0
  22 O    1     0.9868     1.8648   81 H    1-1 0
  22 O    1     1.7152     3.2413   94 H    1-1 0
  22 O    1     1.8421     3.4810   76 H    0 0 0
  22 O    1     2.6536     5.0146   28 O    1-1 0
  22 O    1     2.6831     5.0703    3 O    0-1 0

  23 O    1     0.9789     1.8498   84 H    0 0 0
  23 O    1     0.9879     1.8669   83 H    0 0 0
  23 O    1     1.7188     3.2480   91 H    0 0 0
  23 O    1     1.7613     3.3283   74 H    0 0 0
  23 O    1     2.6675     5.0408    2 O    0 0 0
  23 O    1     2.6715     5.0484   27 O    0 0 0

  24 O    1     0.9795     1.8510   86 H    0 0 0
  24 O    1     0.9842     1.8598   85 H    0 0 0
  24 O    1     1.7688     3.3425   93 H    0 0 0
  24 O    1     1.8025     3.4062   78 H    0 0 0
  24 O    1     2.6861     5.0761    1 O    0 0 0
  24 O    1     2.6922     5.0875   28 O    0 0 0

  25 O    1     0.9824     1.8564   87 H    0 0 0
  25 O    1     0.9844     1.8603   88 H    0 0 0
  25 O    1     1.6876     3.1891   96 H    0 0 0
  25 O    1     1.7006     3.2136   90 H    0 1 0
  25 O    1     2.6527     5.0129   17 O    0 0 0
  25 O    1     2.6743     5.0538   29 O    0 0 0

  26 O    1     0.9849     1.8611   89 H    0 0 0
  26 O    1     0.9867     1.8646   90 H    0 0 0
  26 O    1     1.6893     3.1923   98 H    0 0 0
  26 O    1     1.7599     3.3258   73 H    0 0 0
  26 O    1     2.6685     5.0428   20 O    0-1 0
  26 O    1     2.6762     5.0573   30 O    0 0 0

  27 O    1     0.9847     1.8608   91 H    0 0 0
  27 O    1     0.9864     1.8640   92 H    0 0 0
  27 O    1     1.6873     3.1886  102 H    0 0 0
  27 O    1     1.7637     3.3330   79 H    0 0 0
  27 O    1     2.6715     5.0484   23 O    0 0 0
  27 O    1     2.6751     5.0553   32 O    0 0 0

  28 O    1     0.9814     1.8547   93 H    0 0 0
  28 O    1     0.9847     1.8607   94 H    0 0 0
  28 O    1     1.6926     3.1986  100 H    0 0 0
  28 O    1     1.7055     3.2229   92 H   -1 1 0
  28 O    1     2.6536     5.0146   22 O   -1 1 0
  28 O    1     2.6793     5.0632   31 O    0 0 0

  29 O    1     0.9876     1.8664   96 H    0 0 0
  29 O    1     0.9879     1.8669   95 H    0 0 0
  29 O    1     1.6931     3.1994   43 H    0 0 0
  29 O    1     1.7172     3.2450  111 H    0 0 0
  29 O    1     2.6743     5.0538   25 O    0 0 0
  29 O    1     2.6806     5.0657    3 O    0 0 0

  30 O    1     0.9891     1.8692   98 H    0 0 0
  30 O    1     0.9897     1.8702   97 H    0 0 0
  30 O    1     1.6786     3.1721   41 H    0 0 0
  30 O    1     1.7033     3.2188  113 H    0 0 0
  30 O    1     2.6669     5.0397    2 O    0 0 0
  30 O    1     2.6762     5.0573   26 O    0 0 0

  31 O    1     0.9874     1.8658  100 H    0 0 0
  31 O    1     0.9882     1.8675   99 H    0 0 0
  31 O    1     1.7006     3.2136   47 H    0 0 0
  31 O    1     1.7238     3.2575  114 H    0 0 0
  31 O    1     2.6793     5.0632   28 O    0 0 0
  31 O    1     2.6851     5.0741    7 O    0 0 0

  32 O    1     0.9869     1.8650  101 H    0 0 0
  32 O    1     0.9895     1.8699  102 H    0 0 0
  32 O    1     1.6797     3.1742   50 H    0 0 0
  32 O    1     1.7141     3.2392  112 H    0 0 0
  32 O    1     2.6680     5.0419    6 O    0 0 0
  32 O    1     2.6751     5.0553   27 O    0 0 0

  33 O    1     0.9858     1.8629  104 H    0 0 0
  33 O    1     0.9871     1.8653  103 H    0 0 0
  33 O    1     1.6861     3.1862   40 H    0 0 0
  33 O    1     1.7190     3.2485  105 H    0 0 0
  33 O    1     2.6674     5.0406    8 O    0 0 0
  33 O    1     2.6682     5.0423    1 O    0 0 0

  34 O    1     0.9862     1.8637  106 H    0 0 0
  34 O    1     0.9871     1.8654  105 H    0 0 0
  34 O    1     1.6990     3.2106   52 H    0 0 0
  34 O    1     1.7419     3.2918   42 H    0 0 0
  34 O    1     2.6810     5.0663    7 O    0 0 0
  34 O    1     2.6952     5.0932   37 O    0 0 0

  35 O    1     0.9864     1.8641  108 H    0 0 0
  35 O    1     0.9865     1.8642  107 H    0 0 0
  35 O    1     1.7122     3.2355   46 H    1 0 0
  35 O    1     1.7313     3.2716   48 H    1 0 0
  35 O    1     2.6937     5.0903    4 O    1 0 0
  35 O    1     2.6938     5.0906   37 O    0 0 0

  36 O    1     0.9851     1.8616  110 H    0 0 0
  36 O    1     0.9851     1.8616  109 H    0 0 0
  36 O    1     1.7168     3.2443   44 H   -1 0 0
  36 O    1     1.7260     3.2617  107 H   -1 0 0
  36 O    1     2.6959     5.0945   38 O    0 0 0
  36 O    1     2.6973     5.0971    3 O   -1 0 0

  37 O    1     0.9870     1.8652  112 H    0 0 0
  37 O    1     0.9874     1.8659  111 H    0 0 0
  37 O    1     1.7289     3.2671  108 H    0 0 0
  37 O    1     1.7310     3.2711  106 H    0 0 0
  37 O    1     2.6938     5.0906   35 O    0 0 0
  37 O    1     2.6952     5.0932   34 O    0 0 0

  38 O    1     0.9874     1.8659  114 H    0 0 0
  38 O    1     0.9881     1.8672  113 H    0 0 0
  38 O    1     1.7255     3.2606  104 H    0 0 0
  38 O    1     1.7344     3.2776  110 H    0 0 0
  38 O    1     2.6884     5.0803   33 O    0 0 0
  38 O    1     2.6914     5.0859   30 O    0 0 0

  39 H    1     0.9823     1.8563    1 O    0 0 0
  39 H    1     1.5839     2.9931   40 H    0 0 0
  39 H    1     1.7355     3.2796    9 O    0 0 0
  39 H    1     2.1926     4.1434   95 H    0 0 0
  39 H    1     2.2484     4.2490   55 H    0 0 0
  39 H    1     2.4324     4.5965   85 H    0 0 0

  40 H    1     0.9877     1.8664    1 O    0 0 0
  40 H    1     1.5839     2.9931   39 H    0 0 0
  40 H    1     1.6861     3.1862   33 O    0 0 0
  40 H    1     2.1594     4.0807   95 H    0 0 0
  40 H    1     2.2087     4.1739  103 H    0 0 0
  40 H    1     2.2254     4.2053   85 H    0 0 0

  41 H    1     0.9895     1.8699    2 O    0 0 0
  41 H    1     1.5640     2.9556   42 H    0 0 0
  41 H    1     1.6786     3.1721   30 O    0 0 0
  41 H    1     2.1214     4.0089   83 H    0 0 0
  41 H    1     2.1781     4.1160   57 H    0 0 0
  41 H    1     2.2073     4.1712   98 H    0 0 0

  42 H    1     0.9848     1.8610    2 O    0 0 0
  42 H    1     1.5640     2.9556   41 H    0 0 0
  42 H    1     1.7419     3.2918   34 O    0 0 0
  42 H    1     2.1756     4.1113   83 H    0 0 0
  42 H    1     2.2268     4.2081   57 H    0 0 0
  42 H    1     2.2429     4.2385  105 H    0 0 0

  43 H    1     0.9885     1.8680    3 O    0 0 0
  43 H    1     1.5612     2.9502   44 H    0 0 0
  43 H    1     1.6931     3.1994   29 O    0 0 0
  43 H    1     2.1389     4.0420   59 H    0 0 0
  43 H    1     2.1596     4.0810   81 H    1 0 0
  43 H    1     2.1865     4.1320   96 H    0 0 0

  44 H    1     0.9861     1.8635    3 O    0 0 0
  44 H    1     1.5612     2.9502   43 H    0 0 0
  44 H    1     1.7168     3.2443   36 O    1 0 0
  44 H    1     2.1615     4.0846   81 H    1 0 0
  44 H    1     2.2339     4.2215   59 H    0 0 0
  44 H    1     2.2425     4.2377  109 H    1 0 0

  45 H    1     0.9854     1.8621    4 O    0 0 0
  45 H    1     1.5782     2.9823   46 H    0 0 0
  45 H    1     1.7144     3.2397   21 O    0-1 0
  45 H    1     2.1649     4.0911   97 H    0 0 0
  45 H    1     2.1653     4.0918   80 H    0-1 0
  45 H    1     2.3027     4.3515   79 H   -1 0 0

  46 H    1     0.9862     1.8637    4 O    0 0 0
  46 H    1     1.5782     2.9823   45 H    0 0 0
  46 H    1     1.7122     3.2355   35 O   -1 0 0
  46 H    1     2.1724     4.1052   97 H    0 0 0
  46 H    1     2.2172     4.1900  107 H   -1 0 0
  46 H    1     2.2917     4.3307   61 H    0 0 0

  47 H    1     0.9880     1.8671    5 O    0 0 0
  47 H    1     1.5600     2.9480   48 H    0 0 0
  47 H    1     1.7006     3.2136   31 O    0 0 0
  47 H    1     2.1546     4.0716   63 H    0 0 0
  47 H    1     2.1803     4.1202   75 H   -1 0 0
  47 H    1     2.1945     4.1469  100 H    0 0 0

  48 H    1     0.9854     1.8621    5 O    0 0 0
  48 H    1     1.5600     2.9480   47 H    0 0 0
  48 H    1     1.7313     3.2716   35 O   -1 0 0
  48 H    1     2.1978     4.1533   75 H   -1 0 0
  48 H    1     2.2325     4.2188   63 H    0 0 0
  48 H    1     2.2331     4.2200  107 H   -1 0 0

  49 H    1     0.9815     1.8547    6 O    0 0 0
  49 H    1     1.5690     2.9649   50 H    0 0 0
  49 H    1     1.7471     3.3016   14 O    0 0 0
  49 H    1     2.2754     4.2998   65 H    0 0 0
  49 H    1     2.2796     4.3078  109 H    1 0 0
  49 H    1     2.3681     4.4750   77 H    0 0 0

  50 H    1     0.9897     1.8702    6 O    0 0 0
  50 H    1     1.5690     2.9649   49 H    0 0 0
  50 H    1     1.6797     3.1742   32 O    0 0 0
  50 H    1     2.1356     4.0358   77 H    0 0 0
  50 H    1     2.1821     4.1236  109 H    1 0 0
  50 H    1     2.2091     4.1745  102 H    0 0 0

  51 H    1     0.9837     1.8589    7 O    0 0 0
  51 H    1     1.5815     2.9885   52 H    0 0 0
  51 H    1     1.7213     3.2528   15 O    0 0 0
  51 H    1     2.1829     4.1250   99 H    0 0 0
  51 H    1     2.2398     4.2327   67 H    0 0 0
  51 H    1     2.4316     4.5950   71 H    0 0 0

  52 H    1     0.9877     1.8665    7 O    0 0 0
  52 H    1     1.5815     2.9885   51 H    0 0 0
  52 H    1     1.6990     3.2106   34 O    0 0 0
  52 H    1     2.1655     4.0921   99 H    0 0 0
  52 H    1     2.1812     4.1218  105 H    0 0 0
  52 H    1     2.2193     4.1939   71 H    0 0 0

  53 H    1     0.9810     1.8538    8 O    0 0 0
  53 H    1     1.6160     3.0539   54 H    0 0 0
  53 H    1     1.7461     3.2996   16 O    0 0 0
  53 H    1     2.2173     4.1901   69 H    0 0 0
  53 H    1     2.2188     4.1928  101 H    0 0 0
  53 H    1     2.2708     4.2913  103 H    0 0 0

  54 H    1     0.9883     1.8676    8 O    0 0 0
  54 H    1     1.6160     3.0539   53 H    0 0 0
  54 H    1     1.6787     3.1723   18 O    0 0 0
  54 H    1     2.1267     4.0189   74 H    0 0 0
  54 H    1     2.2052     4.1672  101 H    0 0 0
  54 H    1     2.2509     4.2535  103 H    0 0 0

  55 H    1     0.9874     1.8660    9 O    0 0 0
  55 H    1     1.5585     2.9452   56 H    0 0 0
  55 H    1     1.7264     3.2625   11 O    0 0 0
  55 H    1     2.1307     4.0265   60 H    0 0 0
  55 H    1     2.1666     4.0943   69 H    0 0 0
  55 H    1     2.2484     4.2490   39 H    0 0 0

  56 H    1     0.9787     1.8495    9 O    0 0 0
  56 H    1     1.5585     2.9452   55 H    0 0 0
  56 H    1     1.8146     3.4290   13 O    1 0-1
  56 H    1     2.1804     4.1204   69 H    0 0 0
  56 H    1     2.2147     4.1852   64 H    1 0-1
  56 H    1     2.4696     4.6669   39 H    0 0 0

  57 H    1     0.9841     1.8597   10 O    0 0 0
  57 H    1     1.5810     2.9876   58 H    0 0 0
  57 H    1     1.7378     3.2839    2 O    0 0 0
  57 H    1     2.1781     4.1160   41 H    0 0 0
  57 H    1     2.2268     4.2081   42 H    0 0 0
  57 H    1     2.2441     4.2408   67 H    0 0 0

  58 H    1     0.9847     1.8609   10 O    0 0 0
  58 H    1     1.5810     2.9876   57 H    0 0 0
  58 H    1     1.7477     3.3027   12 O    0 0 0
  58 H    1     2.1302     4.0255   67 H    0 0 0
  58 H    1     2.1467     4.0566   62 H    0 0 0
  58 H    1     2.2355     4.2245   66 H    0 0 0

  59 H    1     0.9849     1.8613   11 O    0 0 0
  59 H    1     1.5720     2.9706   60 H    0 0 0
  59 H    1     1.7331     3.2750    3 O    0 0 0
  59 H    1     2.1389     4.0420   43 H    0 0 0
  59 H    1     2.2339     4.2215   44 H    0 0 0
  59 H    1     2.3086     4.3626   55 H    0 0 0

  60 H    1     0.9792     1.8503   11 O    0 0 0
  60 H    1     1.5720     2.9706   59 H    0 0 0
  60 H    1     1.8040     3.4090   14 O    0 0 0
  60 H    1     2.1307     4.0265   55 H    0 0 0
  60 H    1     2.1929     4.1439   65 H    0 0 0
  60 H    1     2.2192     4.1936   66 H    1 0-1

  61 H    1     0.9815     1.8548   12 O    0 0 0
  61 H    1     1.5693     2.9655   62 H    0 0 0
  61 H    1     1.7520     3.3109    4 O    0 0 0
  61 H    1     2.2917     4.3307   46 H    0 0 0
  61 H    1     2.3007     4.3476   58 H    0 0 0
  61 H    1     2.4463     4.6228   45 H    0 0 0

  62 H    1     0.9831     1.8578   12 O    0 0 0
  62 H    1     1.5693     2.9655   61 H    0 0 0
  62 H    1     1.7532     3.3131   13 O    0 0 0
  62 H    1     2.1467     4.0566   58 H    0 0 0
  62 H    1     2.1538     4.0701   64 H    0 0 0
  62 H    1     2.2284     4.2111   70 H   -1 0 1

  63 H    1     0.9847     1.8609   13 O    0 0 0
  63 H    1     1.5750     2.9763   64 H    0 0 0
  63 H    1     1.7301     3.2693    5 O    0 0 0
  63 H    1     2.1546     4.0716   47 H    0 0 0
  63 H    1     2.2325     4.2188   48 H    0 0 0
  63 H    1     2.2888     4.3252   62 H    0 0 0

  64 H    1     0.9792     1.8505   13 O    0 0 0
  64 H    1     1.5750     2.9763   63 H    0 0 0
  64 H    1     1.8070     3.4147   15 O    0 0 0
  64 H    1     2.1538     4.0701   62 H    0 0 0
  64 H    1     2.1841     4.1274   67 H    0 0 0
  64 H    1     2.2147     4.1852   56 H   -1 0 1

  65 H    1     0.9817     1.8552   14 O    0 0 0
  65 H    1     1.5499     2.9288   66 H    1 0-1
  65 H    1     1.7851     3.3733   16 O    0 0 0
  65 H    1     2.1629     4.0873   69 H    0 0 0
  65 H    1     2.1929     4.1439   60 H    0 0 0
  65 H    1     2.2116     4.1794   70 H    0 0 0

  66 H    1     0.9785     1.8492   14 O   -1 0 1
  66 H    1     1.5499     2.9288   65 H   -1 0 1
  66 H    1     1.8189     3.4373   10 O    0 0 0
  66 H    1     2.2192     4.1936   60 H   -1 0 1
  66 H    1     2.2355     4.2245   58 H    0 0 0
  66 H    1     2.5120     4.7470   49 H   -1 0 1

  67 H    1     0.9885     1.8680   15 O    0 0 0
  67 H    1     1.5550     2.9386   68 H    0 0 0
  67 H    1     1.7106     3.2325   10 O    0 0 0
  67 H    1     2.1302     4.0255   58 H    0 0 0
  67 H    1     2.1841     4.1274   64 H    0 0 0
  67 H    1     2.2398     4.2327   51 H    0 0 0

  68 H    1     0.9761     1.8445   15 O    0 0 0
  68 H    1     1.5550     2.9386   67 H    0 0 0
  68 H    1     1.8584     3.5118   11 O   -1 0 1
  68 H    1     2.2338     4.2214   64 H    0 0 0
  68 H    1     2.2458     4.2440   60 H   -1 0 1
  68 H    1     2.4536     4.6366   51 H    0 0 0

  69 H    1     0.9844     1.8602   16 O    0 0 0
  69 H    1     1.5517     2.9323   70 H    0 0 0
  69 H    1     1.7572     3.3207    9 O    0 0 0
  69 H    1     2.1629     4.0873   65 H    0 0 0
  69 H    1     2.1666     4.0943   55 H    0 0 0
  69 H    1     2.1804     4.1204   56 H    0 0 0

  70 H    1     0.9780     1.8482   16 O    0 0 0
  70 H    1     1.5517     2.9323   69 H    0 0 0
  70 H    1     1.8397     3.4766   12 O    1 0-1
  70 H    1     2.2116     4.1794   65 H    0 0 0
  70 H    1     2.2284     4.2111   62 H    1 0-1
  70 H    1     2.5074     4.7382   53 H    0 0 0

  71 H    1     0.9839     1.8593   17 O    0 0 0
  71 H    1     1.5969     3.0177   72 H    0 0 0
  71 H    1     1.7124     3.2359    7 O    0 0 0
  71 H    1     2.2193     4.1939   52 H    0 0 0
  71 H    1     2.3668     4.4726   86 H    0 0 0
  71 H    1     2.3983     4.5321   88 H    0 0 0

  72 H    1     0.9775     1.8473   17 O    0 0 0
  72 H    1     1.5969     3.0177   71 H    0 0 0
  72 H    1     1.8266     3.4517   21 O    0 0 0
  72 H    1     2.1510     4.0648   80 H    0 0 0
  72 H    1     2.2082     4.1728   86 H    0 0 0
  72 H    1     2.2895     4.3265   88 H    0 0 0

  73 H    1     0.9822     1.8561   18 O    0 0 0
  73 H    1     1.5513     2.9316   74 H    0 0 0
  73 H    1     1.7599     3.3258   26 O    0 0 0
  73 H    1     2.1618     4.0852   90 H    0 0 0
  73 H    1     2.2649     4.2801   54 H    0 0 0
  73 H    1     2.3700     4.4786   82 H    0 0 0

  74 H    1     0.9850     1.8615   18 O    0 0 0
  74 H    1     1.5513     2.9316   73 H    0 0 0
  74 H    1     1.7613     3.3283   23 O    0 0 0
  74 H    1     2.1267     4.0189   54 H    0 0 0
  74 H    1     2.1565     4.0752   82 H    0 0 0
  74 H    1     2.1739     4.1082   84 H    0 0 0

  75 H    1     0.9863     1.8638   19 O    0 1 0
  75 H    1     1.5584     2.9449   76 H    0 1 0
  75 H    1     1.7227     3.2553    5 O    1 0 0
  75 H    1     2.1803     4.1202   47 H    1 0 0
  75 H    1     2.1978     4.1533   48 H    1 0 0
  75 H    1     2.4132     4.5604   87 H    0 0 0

  76 H    1     0.9795     1.8510   19 O    0 0 0
  76 H    1     1.5584     2.9449   75 H    0-1 0
  76 H    1     1.8421     3.4810   22 O    0 0 0
  76 H    1     2.1374     4.0392   84 H    0 0 0
  76 H    1     2.1643     4.0900   87 H    0-1 0
  76 H    1     2.2051     4.1671   82 H    0 0 0

  77 H    1     0.9861     1.8634   20 O    1-1 0
  77 H    1     1.6058     3.0344   78 H    1-1 0
  77 H    1     1.6844     3.1831    6 O    0 0 0
  77 H    1     2.1356     4.0358   50 H    0 0 0
  77 H    1     2.3256     4.3948   80 H    1-1 0
  77 H    1     2.3644     4.4681   89 H    1 0 0

  78 H    1     0.9787     1.8494   20 O    0 0 0
  78 H    1     1.6058     3.0344   77 H   -1 1 0
  78 H    1     1.8025     3.4062   24 O    0 0 0
  78 H    1     2.1309     4.0268   86 H    0 0 0
  78 H    1     2.1847     4.1285   80 H    0 0 0
  78 H    1     2.2847     4.3175   89 H    0 1 0

  79 H    1     0.9815     1.8547   21 O    1-1 0
  79 H    1     1.5524     2.9336   80 H    1-1 0
  79 H    1     1.7637     3.3330   27 O    0 0 0
  79 H    1     2.1731     4.1066   92 H    0 0 0
  79 H    1     2.3027     4.3515   45 H    1 0 0
  79 H    1     2.3526     4.4458   72 H    1-1 0

  80 H    1     0.9831     1.8577   21 O    0 0 0
  80 H    1     1.5524     2.9336   79 H   -1 1 0
  80 H    1     1.7802     3.3641   20 O    0 0 0
  80 H    1     2.1510     4.0648   72 H    0 0 0
  80 H    1     2.1653     4.0918   45 H    0 1 0
  80 H    1     2.1847     4.1285   78 H    0 0 0

  81 H    1     0.9868     1.8648   22 O   -1 1 0
  81 H    1     1.5968     3.0175   82 H   -1 1 0
  81 H    1     1.7077     3.2271    3 O   -1 0 0
  81 H    1     2.1596     4.0810   43 H   -1 0 0
  81 H    1     2.1615     4.0846   44 H   -1 0 0
  81 H    1     2.3547     4.4498   76 H   -1 1 0

  82 H    1     0.9766     1.8455   22 O    0 0 0
  82 H    1     1.5968     3.0175   81 H    1-1 0
  82 H    1     1.8398     3.4767   18 O    0 0 0
  82 H    1     2.1565     4.0752   74 H    0 0 0
  82 H    1     2.2051     4.1671   76 H    0 0 0
  82 H    1     2.2848     4.3176   94 H    1-1 0

  83 H    1     0.9879     1.8669   23 O    0 0 0
  83 H    1     1.6064     3.0356   84 H    0 0 0
  83 H    1     1.6914     3.1963    2 O    0 0 0
  83 H    1     2.1214     4.0089   41 H    0 0 0
  83 H    1     2.1756     4.1113   42 H    0 0 0
  83 H    1     2.3182     4.3808   74 H    0 0 0

  84 H    1     0.9789     1.8498   23 O    0 0 0
  84 H    1     1.6064     3.0356   83 H    0 0 0
  84 H    1     1.8077     3.4160   19 O    0 0 0
  84 H    1     2.1374     4.0392   76 H    0 0 0
  84 H    1     2.1739     4.1082   74 H    0 0 0
  84 H    1     2.2823     4.3130   91 H    0 0 0

  85 H    1     0.9842     1.8598   24 O    0 0 0
  85 H    1     1.5575     2.9432   86 H    0 0 0
  85 H    1     1.7204     3.2511    1 O    0 0 0
  85 H    1     2.2254     4.2053   40 H    0 0 0
  85 H    1     2.4092     4.5526   93 H    0 0 0
  85 H    1     2.4324     4.5965   39 H    0 0 0

  86 H    1     0.9795     1.8510   24 O    0 0 0
  86 H    1     1.5575     2.9432   85 H    0 0 0
  86 H    1     1.8489     3.4939   17 O    0 0 0
  86 H    1     2.1309     4.0268   78 H    0 0 0
  86 H    1     2.1706     4.1018   93 H    0 0 0
  86 H    1     2.2082     4.1728   72 H    0 0 0

  87 H    1     0.9824     1.8564   25 O    0 0 0
  87 H    1     1.6329     3.0858   88 H    0 0 0
  87 H    1     1.7613     3.3284   19 O    0 1 0
  87 H    1     2.1643     4.0900   76 H    0 1 0
  87 H    1     2.1713     4.1033   96 H    0 0 0
  87 H    1     2.1904     4.1393   90 H    0 1 0

  88 H    1     0.9844     1.8603   25 O    0 0 0
  88 H    1     1.6329     3.0858   87 H    0 0 0
  88 H    1     1.7167     3.2442   17 O    0 0 0
  88 H    1     2.1525     4.0677   96 H    0 0 0
  88 H    1     2.1885     4.1356   90 H    0 1 0
  88 H    1     2.2895     4.3265   72 H    0 0 0

  89 H    1     0.9849     1.8611   26 O    0 0 0
[...]
 TTTTTTTTTTTTTTTTTTTTTTTTTTTTTT NUMDFT      TELAPSE      202.96 TCPU      202.78
 CYC   2 ETOT(AU) -2.899088829847E+03 DETOT -7.94E-01 tst  1.46E-03 PX  1.26E-01
 TTTTTTTTTTTTTTTTTTTTTTTTTTTTTT DIIS        TELAPSE      203.26 TCPU      203.08
 DIIS TEST: 0.81920E+00 AT SCF   CYCLE   2 - DIIS ACTIVE - HISTORY:     2 CYCLES
 TTTTTTTTTTTTTTTTTTTTTTTTTTTTTT FDIK        TELAPSE      203.85 TCPU      203.65
 INSULATING STATE
 TOP OF VALENCE BANDS -    BAND    190; K    1; EIG -3.5212241E-01 AU
 BOTTOM OF VIRTUAL BANDS - BAND    191; K    1; EIG  2.0670807E-02 AU
 DIRECT ENERGY BAND GAP:  10.1442 eV
 TTTTTTTTTTTTTTTTTTTTTTTTTTTTTT PDIG        TELAPSE      203.93 TCPU      203.74
 CHARGE NORMALIZATION FACTOR   1.00000000
 TOTAL ATOMIC CHARGES:
   8.9367391   8.9334274   8.9335718   8.9370013   8.9336486   8.9352734
   8.9360128   8.9360552   8.9254390   8.9371161   8.9332791   8.9353473
   8.9334341   8.9220338   8.9241629   8.9216612   8.9327306   8.9268451
   8.9302429   8.9346476   8.9248816   8.9330752   8.9353337   8.9285169
   8.9253310   8.9386492   8.9379527   8.9247757   8.9407407   8.9423036
   8.9412828   8.9410971   8.9383524   8.9352777   8.9347844   8.9361154
   8.9353835   8.9351900   0.5235141   0.5279954   0.5353127   0.5332114
   0.5353207   0.5331514   0.5265828   0.5332223   0.5379908   0.5340188
   0.5233884   0.5308454   0.5222556   0.5301462   0.5231547   0.5224443
   0.5403836   0.5288816   0.5259671   0.5463041   0.5262970   0.5515852
   0.5256563   0.5486264   0.5254171   0.5497142   0.5449836   0.5282850
   0.5429844   0.5325912   0.5431606   0.5295596   0.5238631   0.5374070
   0.5304507   0.5454199   0.5270562   0.5529813   0.5240128   0.5361636
   0.5305808   0.5483128   0.5262167   0.5385620   0.5254626   0.5356474
   0.5248215   0.5511243   0.5297376   0.5254956   0.5267293   0.5356275
   0.5267327   0.5362184   0.5311929   0.5249030   0.5360635   0.5308267
   0.5344291   0.5324522   0.5357607   0.5312375   0.5334509   0.5316208
   0.5287884   0.5286262   0.5422649   0.5274955   0.5436620   0.5274740
   0.5312117   0.5281375   0.5385131   0.5374406   0.5383667   0.5367933
 TTTTTTTTTTTTTTTTTTTTTTTTTTTTTT MOQGAD      TELAPSE      203.95 TCPU      203.75
 TTTTTTTTTTTTTTTTTTTTTTTTTTTTTT SHELLXN     TELAPSE      249.46 TCPU      249.25
 TTTTTTTTTTTTTTTTTTTTTTTTTTTTTT MONMO3      TELAPSE      254.45 TCPU      254.24
 NUMERICALLY INTEGRATED DENSITY    380.0000100708
 TTTTTTTTTTTTTTTTTTTTTTTTTTTTTT NUMDFT      TELAPSE      264.56 TCPU      264.35
 CYC   3 ETOT(AU) -2.899300864940E+03 DETOT -2.12E-01 tst  2.14E-04 PX  4.48E-02
 TTTTTTTTTTTTTTTTTTTTTTTTTTTTTT DIIS        TELAPSE      264.86 TCPU      264.65
 DIIS TEST: 0.39644E-02 AT SCF   CYCLE   3 - DIIS ACTIVE - HISTORY:     3 CYCLES
 TTTTTTTTTTTTTTTTTTTTTTTTTTTTTT FDIK        TELAPSE      265.45 TCPU      265.21
 INSULATING STATE
 TOP OF VALENCE BANDS -    BAND    190; K    1; EIG -3.4969387E-01 AU
 BOTTOM OF VIRTUAL BANDS - BAND    191; K    1; EIG  2.3120438E-02 AU
 DIRECT ENERGY BAND GAP:  10.1448 eV
 TTTTTTTTTTTTTTTTTTTTTTTTTTTTTT PDIG        TELAPSE      265.55 TCPU      265.31
 CHARGE NORMALIZATION FACTOR   1.00000000
 TOTAL ATOMIC CHARGES:
   8.9354771   8.9320700   8.9324727   8.9358485   8.9323063   8.9342178
   8.9359153   8.9362443   8.9229888   8.9347655   8.9282119   8.9309828
   8.9293550   8.9180540   8.9213882   8.9169442   8.9267228   8.9233128
   8.9242838   8.9322323   8.9208465   8.9278943   8.9335144   8.9226918
   8.9265906   8.9356442   8.9354665   8.9259523   8.9418674   8.9461791
   8.9416914   8.9428676   8.9382014   8.9346366   8.9344457   8.9355946
   8.9312375   8.9310518   0.5244918   0.5285848   0.5352167   0.5338325
   0.5358109   0.5337782   0.5275115   0.5337373   0.5385236   0.5347327
   0.5243427   0.5310526   0.5229167   0.5304493   0.5237624   0.5228445
   0.5418217   0.5305895   0.5272334   0.5476618   0.5282716   0.5535322
   0.5276538   0.5504161   0.5272066   0.5515272   0.5467408   0.5303335
   0.5440483   0.5343884   0.5449060   0.5318464   0.5259235   0.5399726
   0.5319879   0.5467140   0.5292285   0.5555250   0.5251105   0.5376962
   0.5323531   0.5498261   0.5281268   0.5407550   0.5262851   0.5372042
   0.5269818   0.5537684   0.5302086   0.5260241   0.5282133   0.5365412
   0.5281447   0.5368715   0.5315950   0.5253716   0.5358572   0.5305669
   0.5337077   0.5317632   0.5357846   0.5312133   0.5331224   0.5314138
   0.5290706   0.5290097   0.5424661   0.5282644   0.5437467   0.5282316
   0.5316422   0.5288303   0.5394951   0.5384611   0.5390622   0.5379291
 TTTTTTTTTTTTTTTTTTTTTTTTTTTTTT MOQGAD      TELAPSE      265.56 TCPU      265.33
 TTTTTTTTTTTTTTTTTTTTTTTTTTTTTT SHELLXN     TELAPSE      311.67 TCPU      311.42
 TTTTTTTTTTTTTTTTTTTTTTTTTTTTTT MONMO3      TELAPSE      316.54 TCPU      316.29
 NUMERICALLY INTEGRATED DENSITY    380.0000100756
 TTTTTTTTTTTTTTTTTTTTTTTTTTTTTT NUMDFT      TELAPSE      326.76 TCPU      326.51
 CYC   4 ETOT(AU) -2.899301400204E+03 DETOT -5.35E-04 tst  5.18E-07 PX  2.96E-03
 TTTTTTTTTTTTTTTTTTTTTTTTTTTTTT DIIS        TELAPSE      327.07 TCPU      326.82
 DIIS TEST: 0.35736E-03 AT SCF   CYCLE   4 - DIIS ACTIVE - HISTORY:     4 CYCLES
 TTTTTTTTTTTTTTTTTTTTTTTTTTTTTT FDIK        TELAPSE      327.60 TCPU      327.30
 INSULATING STATE
 TOP OF VALENCE BANDS -    BAND    190; K    1; EIG -3.5018074E-01 AU
 BOTTOM OF VIRTUAL BANDS - BAND    191; K    1; EIG  2.3284586E-02 AU
 DIRECT ENERGY BAND GAP:  10.1625 eV
 TTTTTTTTTTTTTTTTTTTTTTTTTTTTTT PDIG        TELAPSE      327.70 TCPU      327.39
 CHARGE NORMALIZATION FACTOR   1.00000000
 TOTAL ATOMIC CHARGES:
   8.9347599   8.9319106   8.9315793   8.9351548   8.9315770   8.9334744
   8.9341276   8.9341602   8.9230876   8.9351423   8.9313121   8.9332590
   8.9314059   8.9195930   8.9219932   8.9196366   8.9307903   8.9249531
   8.9283485   8.9323440   8.9228376   8.9309716   8.9331970   8.9266102
   8.9231550   8.9369846   8.9363537   8.9226412   8.9391202   8.9402261
   8.9396228   8.9392136   8.9365296   8.9334677   8.9327687   8.9342209
   8.9339470   8.9339459   0.5245421   0.5290040   0.5360005   0.5340949
   0.5363695   0.5341751   0.5274975   0.5342010   0.5389948   0.5350424
   0.5243816   0.5318056   0.5232125   0.5311147   0.5240670   0.5232764
   0.5414262   0.5301648   0.5268793   0.5473896   0.5271882   0.5525757
   0.5267074   0.5496102   0.5263834   0.5509021   0.5460267   0.5295818
   0.5438814   0.5338494   0.5441113   0.5307339   0.5247336   0.5385441
   0.5313494   0.5463507   0.5279660   0.5540649   0.5249970   0.5372524
   0.5315888   0.5493033   0.5271217   0.5396824   0.5262571   0.5368644
   0.5257664   0.5522162   0.5307835   0.5265076   0.5278051   0.5366590
   0.5278455   0.5370613   0.5321919   0.5259346   0.5367889   0.5316422
   0.5354408   0.5333579   0.5366093   0.5321171   0.5343992   0.5324043
   0.5297767   0.5293222   0.5431308   0.5283331   0.5445258   0.5284046
   0.5321232   0.5289977   0.5392899   0.5382385   0.5390702   0.5375670
 TTTTTTTTTTTTTTTTTTTTTTTTTTTTTT MOQGAD      TELAPSE      327.71 TCPU      327.41
 TTTTTTTTTTTTTTTTTTTTTTTTTTTTTT SHELLXN     TELAPSE      373.51 TCPU      373.20
 TTTTTTTTTTTTTTTTTTTTTTTTTTTTTT MONMO3      TELAPSE      378.46 TCPU      378.14
 NUMERICALLY INTEGRATED DENSITY    380.0000101076
 TTTTTTTTTTTTTTTTTTTTTTTTTTTTTT NUMDFT      TELAPSE      387.91 TCPU      387.60
 CYC   5 ETOT(AU) -2.899301418820E+03 DETOT -1.86E-05 tst  9.70E-08 PX  2.69E-03
 TTTTTTTTTTTTTTTTTTTTTTTTTTTTTT DIIS        TELAPSE      388.22 TCPU      387.91
 DIIS TEST: 0.30111E-03 AT SCF   CYCLE   5 - DIIS ACTIVE - HISTORY:     5 CYCLES
 TTTTTTTTTTTTTTTTTTTTTTTTTTTTTT FDIK        TELAPSE      388.71 TCPU      388.38
 INSULATING STATE
 TOP OF VALENCE BANDS -    BAND    190; K    1; EIG -3.5001222E-01 AU
 BOTTOM OF VIRTUAL BANDS - BAND    191; K    1; EIG  2.3271506E-02 AU
 DIRECT ENERGY BAND GAP:  10.1576 eV
 TTTTTTTTTTTTTTTTTTTTTTTTTTTTTT PDIG        TELAPSE      388.80 TCPU      388.47
 CHARGE NORMALIZATION FACTOR   1.00000000
 TOTAL ATOMIC CHARGES:
   8.9351734   8.9318931   8.9321760   8.9354913   8.9320691   8.9338289
   8.9351555   8.9352975   8.9232788   8.9351110   8.9298262   8.9322400
   8.9304998   8.9190015   8.9218233   8.9183399   8.9287946   8.9241762
   8.9262749   8.9325346   8.9219443   8.9294994   8.9335691   8.9246480
   8.9251563   8.9361882   8.9358269   8.9245643   8.9405808   8.9435259
   8.9407140   8.9412286   8.9374589   8.9340992   8.9337078   8.9350078
   8.9323365   8.9321740   0.5244198   0.5287793   0.5356454   0.5339693
   0.5360601   0.5339221   0.5274436   0.5339814   0.5387370   0.5348608
   0.5243123   0.5314206   0.5229450   0.5307489   0.5238376   0.5230165
   0.5416014   0.5302231   0.5269245   0.5475347   0.5276002   0.5530717
   0.5270657   0.5500065   0.5266560   0.5512036   0.5463785   0.5298011
   0.5439636   0.5340119   0.5445074   0.5312105   0.5252659   0.5391977
   0.5316530   0.5465526   0.5285109   0.5548526   0.5249567   0.5373897
   0.5319235   0.5495761   0.5275249   0.5401728   0.5261892   0.5369513
   0.5263040   0.5530406   0.5304396   0.5261782   0.5279809   0.5365787
   0.5279430   0.5369451   0.5318461   0.5255645   0.5363014   0.5310265
   0.5345169   0.5324856   0.5361832   0.5315880   0.5337094   0.5318835
   0.5293940   0.5291314   0.5428446   0.5282586   0.5441686   0.5282483
   0.5318559   0.5288718   0.5394892   0.5384254   0.5391550   0.5378488
 TTTTTTTTTTTTTTTTTTTTTTTTTTTTTT MOQGAD      TELAPSE      388.81 TCPU      388.48
 TTTTTTTTTTTTTTTTTTTTTTTTTTTTTT SHELLXN     TELAPSE      433.89 TCPU      433.56
 TTTTTTTTTTTTTTTTTTTTTTTTTTTTTT MONMO3      TELAPSE      438.92 TCPU      438.59
 NUMERICALLY INTEGRATED DENSITY    380.0000100901
 TTTTTTTTTTTTTTTTTTTTTTTTTTTTTT NUMDFT      TELAPSE      448.32 TCPU      447.99
 CYC   6 ETOT(AU) -2.899301468096E+03 DETOT -4.93E-05 tst  2.96E-08 PX  1.41E-03
 TTTTTTTTTTTTTTTTTTTTTTTTTTTTTT DIIS        TELAPSE      448.67 TCPU      448.34
 DIIS TEST: 0.28898E-04 AT SCF   CYCLE   6 - DIIS ACTIVE - HISTORY:     6 CYCLES
 TTTTTTTTTTTTTTTTTTTTTTTTTTTTTT FDIK        TELAPSE      449.20 TCPU      448.85
 INSULATING STATE
 TOP OF VALENCE BANDS -    BAND    190; K    1; EIG -3.4996366E-01 AU
 BOTTOM OF VIRTUAL BANDS - BAND    191; K    1; EIG  2.3296992E-02 AU
 DIRECT ENERGY BAND GAP:  10.1569 eV
 TTTTTTTTTTTTTTTTTTTTTTTTTTTTTT PDIG        TELAPSE      449.30 TCPU      448.95
 CHARGE NORMALIZATION FACTOR   1.00000000
 TOTAL ATOMIC CHARGES:
   8.9351884   8.9321054   8.9320836   8.9356051   8.9319848   8.9339159
   8.9351016   8.9352891   8.9230520   8.9349820   8.9297839   8.9321049
   8.9304117   8.9188198   8.9217129   8.9182890   8.9287647   8.9241148
   8.9263617   8.9323122   8.9218278   8.9294517   8.9333667   8.9246518
   8.9248983   8.9364276   8.9359896   8.9243242   8.9405718   8.9432334
   8.9407186   8.9410766   8.9374309   8.9340724   8.9336425   8.9349586
   8.9326693   8.9325854   0.5244620   0.5287622   0.5355904   0.5339370
   0.5360787   0.5339632   0.5274496   0.5339417   0.5387372   0.5348978
   0.5243339   0.5313905   0.5229895   0.5307589   0.5238715   0.5230165
   0.5416576   0.5303288   0.5269884   0.5475532   0.5276627   0.5530859
   0.5271373   0.5500337   0.5267386   0.5512329   0.5464234   0.5299009
   0.5439994   0.5340737   0.5445299   0.5312671   0.5253018   0.5392257
   0.5316690   0.5465695   0.5285254   0.5548206   0.5250157   0.5374617
   0.5319645   0.5496038   0.5275759   0.5401943   0.5262292   0.5370038
   0.5263357   0.5530357   0.5305001   0.5262609   0.5279678   0.5365388
   0.5279578   0.5369162   0.5319074   0.5256405   0.5362932   0.5310676
   0.5345597   0.5325345   0.5361819   0.5316242   0.5337335   0.5318981
   0.5294020   0.5290975   0.5428110   0.5282521   0.5441563   0.5282552
   0.5318537   0.5288587   0.5393808   0.5383482   0.5390469   0.5377483
 TTTTTTTTTTTTTTTTTTTTTTTTTTTTTT MOQGAD      TELAPSE      449.31 TCPU      448.96
 TTTTTTTTTTTTTTTTTTTTTTTTTTTTTT SHELLXN     TELAPSE      495.39 TCPU      495.03
 TTTTTTTTTTTTTTTTTTTTTTTTTTTTTT MONMO3      TELAPSE      500.26 TCPU      499.90
 NUMERICALLY INTEGRATED DENSITY    380.0000100909
 TTTTTTTTTTTTTTTTTTTTTTTTTTTTTT NUMDFT      TELAPSE      510.19 TCPU      509.83
 CYC   7 ETOT(AU) -2.899301469572E+03 DETOT -1.48E-06 tst  4.81E-10 PX  2.08E-04
 TTTTTTTTTTTTTTTTTTTTTTTTTTTTTT DIIS        TELAPSE      510.51 TCPU      510.16
 DIIS TEST: 0.10784E-05 AT SCF   CYCLE   7 - DIIS ACTIVE - HISTORY:     7 CYCLES
 TTTTTTTTTTTTTTTTTTTTTTTTTTTTTT FDIK        TELAPSE      510.94 TCPU      510.58
 INSULATING STATE
 TOP OF VALENCE BANDS -    BAND    190; K    1; EIG -3.5000462E-01 AU
 BOTTOM OF VIRTUAL BANDS - BAND    191; K    1; EIG  2.3293101E-02 AU
 DIRECT ENERGY BAND GAP:  10.1580 eV
 TTTTTTTTTTTTTTTTTTTTTTTTTTTTTT PDIG        TELAPSE      511.04 TCPU      510.68
 CHARGE NORMALIZATION FACTOR   1.00000000
 TOTAL ATOMIC CHARGES:
   8.9351093   8.9317760   8.9321178   8.9354071   8.9320350   8.9337291
   8.9350862   8.9352007   8.9232667   8.9350929   8.9298349   8.9322613
   8.9304814   8.9189974   8.9217983   8.9183513   8.9288343   8.9241674
   8.9262916   8.9325332   8.9219687   8.9295314   8.9335747   8.9246694
   8.9250940   8.9360978   8.9357350   8.9244751   8.9404597   8.9434366
   8.9406271   8.9411495   8.9374126   8.9340607   8.9336549   8.9349575
   8.9323033   8.9321219   0.5244584   0.5287910   0.5356763   0.5340309
   0.5360890   0.5339566   0.5274795   0.5339974   0.5387412   0.5348850
   0.5243581   0.5314487   0.5229755   0.5307713   0.5238788   0.5230338
   0.5415926   0.5302446   0.5269643   0.5475152   0.5276221   0.5530547
   0.5270852   0.5499873   0.5266902   0.5512061   0.5463724   0.5298261
   0.5439673   0.5340289   0.5444895   0.5312225   0.5252732   0.5391859
   0.5316746   0.5465486   0.5285239   0.5548403   0.5249659   0.5373995
   0.5319372   0.5495549   0.5275383   0.5401651   0.5262015   0.5369545
   0.5263235   0.5530269   0.5304536   0.5262029   0.5280257   0.5366137
   0.5279979   0.5369769   0.5318652   0.5255897   0.5363408   0.5310783
   0.5345478   0.5325298   0.5362203   0.5316317   0.5337441   0.5319145
   0.5294292   0.5291529   0.5428511   0.5282873   0.5441833   0.5282821
   0.5318818   0.5289024   0.5395092   0.5384575   0.5391755   0.5378988
 TTTTTTTTTTTTTTTTTTTTTTTTTTTTTT MOQGAD      TELAPSE      511.05 TCPU      510.69
 TTTTTTTTTTTTTTTTTTTTTTTTTTTTTT SHELLXN     TELAPSE      557.49 TCPU      557.12
 TTTTTTTTTTTTTTTTTTTTTTTTTTTTTT MONMO3      TELAPSE      562.41 TCPU      562.04
 NUMERICALLY INTEGRATED DENSITY    380.0000100909
 TTTTTTTTTTTTTTTTTTTTTTTTTTTTTT NUMDFT      TELAPSE      572.15 TCPU      571.77
 CYC   8 ETOT(AU) -2.899301469683E+03 DETOT -1.11E-07 tst  5.21E-10 PX  2.04E-04
 TTTTTTTTTTTTTTTTTTTTTTTTTTTTTT DIIS        TELAPSE      572.49 TCPU      572.11
 DIIS TEST: 0.12684E-05 AT SCF   CYCLE   8 - DIIS ACTIVE - HISTORY:     8 CYCLES
 TTTTTTTTTTTTTTTTTTTTTTTTTTTTTT FDIK        TELAPSE      572.93 TCPU      572.55
 INSULATING STATE
 TOP OF VALENCE BANDS -    BAND    190; K    1; EIG -3.4998469E-01 AU
 BOTTOM OF VIRTUAL BANDS - BAND    191; K    1; EIG  2.3293548E-02 AU
 DIRECT ENERGY BAND GAP:  10.1574 eV
 TTTTTTTTTTTTTTTTTTTTTTTTTTTTTT PDIG        TELAPSE      573.02 TCPU      572.63
 CHARGE NORMALIZATION FACTOR   1.00000000
 TOTAL ATOMIC CHARGES:
   8.9351536   8.9319606   8.9321002   8.9355244   8.9320075   8.9338378
   8.9351003   8.9352570   8.9231538   8.9350327   8.9298075   8.9321718
   8.9304468   8.9188981   8.9217537   8.9183163   8.9287905   8.9241285
   8.9263230   8.9324080   8.9218807   8.9294816   8.9334512   8.9246510
   8.9249893   8.9362831   8.9358781   8.9243979   8.9405234   8.9433136
   8.9406762   8.9410991   8.9374125   8.9340520   8.9336398   8.9349496
   8.9324857   8.9323600   0.5244567   0.5287775   0.5356339   0.5339808
   0.5360860   0.5339611   0.5274594   0.5339677   0.5387406   0.5348936
   0.5243402   0.5314214   0.5229772   0.5307667   0.5238701   0.5230222
   0.5416300   0.5302855   0.5269707   0.5475423   0.5276388   0.5530762
   0.5271078   0.5500183   0.5267102   0.5512235   0.5464063   0.5298630
   0.5439894   0.5340489   0.5445154   0.5312451   0.5252890   0.5392087
   0.5316735   0.5465695   0.5285240   0.5548370   0.5249925   0.5374351
   0.5319540   0.5495912   0.5275583   0.5401837   0.5262161   0.5369835
   0.5263301   0.5530389   0.5304800   0.5262334   0.5279910   0.5365724
   0.5279730   0.5369450   0.5318893   0.5256152   0.5363154   0.5310697
   0.5345576   0.5325344   0.5362012   0.5316245   0.5337427   0.5319079
   0.5294184   0.5291241   0.5428411   0.5282685   0.5441794   0.5282658
   0.5318672   0.5288791   0.5394483   0.5384065   0.5391159   0.5378244
 TTTTTTTTTTTTTTTTTTTTTTTTTTTTTT MOQGAD      TELAPSE      573.03 TCPU      572.65
 TTTTTTTTTTTTTTTTTTTTTTTTTTTTTT SHELLXN     TELAPSE      618.13 TCPU      617.74
 +++ ENERGIES IN A.U. +++
 ::: EXT EL-POLE                                  -1.9405936240897E+03
 ::: EXT EL-SPHEROPOLE                             2.1208773325580E+01
 ::: BIELET ZONE E-E                               3.3482919709209E+03
 ::: TOTAL E-E                                     1.4289071201567E+03
 ::: TOTAL E-N + N-E                              -7.0875105295189E+03
 ::: TOTAL N-N                                     9.5839946036803E+01
 ::: KINETIC ENERGY                                2.8809336879819E+03
 ::: PSEUDO TOTAL   ENERGY                        -2.6818297753435E+03
 ::: VIRIAL COEFFICIENT                            1.0357922665508E+00
 TTTTTTTTTTTTTTTTTTTTTTTTTTTTTT MONMO3      TELAPSE      622.98 TCPU      622.59
 NUMERICALLY INTEGRATED DENSITY    380.0000100910
 TTTTTTTTTTTTTTTTTTTTTTTTTTTTTT NUMDFT      TELAPSE      632.35 TCPU      631.96
 CYC   9 ETOT(AU) -2.899301469856E+03 DETOT -1.73E-07 tst  1.54E-10 PX  2.04E-04

 == SCF ENDED - CONVERGENCE ON ENERGY      E(AU) -2.8993014698557E+03 CYCLES   9


 ENERGY EXPRESSION=HARTREE+FOCK EXCH*0.00000+(HSE-3c     EXCH)*1.00000+PBEh-3c    CORR


 TOTAL ENERGY(DFT)(AU)(  9) -2.8993014698557E+03 DE-1.7E-07 tester 1.5E-10
 TTTTTTTTTTTTTTTTTTTTTTTTTTTTTT EDFT        TELAPSE      632.35 TCPU      631.96
 
 INFORMATION **** DFTD3 ENERGY **** CALCULATE DFTD3 ENERGY

           DFT-D V3(BJ)
 DF                                         hse3c     
 parameters
 s6       :    1.0000
 s8       :    0.0000
 a1       :    0.4411
 a2       :    4.5182
 k1 k3    :   16.0000   -4.0000
 Cutoff   :   50.2022
 CN-Cutoff:   21.1671
 
 Edisp /kcal,au:   -55.5433 -0.08851392

 E6    /kcal :   -58.0303
 E8    /kcal :     0.0000
 E6(ABC) "   :   2.487010
 
 INFORMATION **** DFTD3 ENERGY **** NORMAL TERMINATION OF DFTD3 MODULE

 GCP ENERGY CALCULATION
  level           hse3c               basis:hse3c
  Nbf            722
  Atoms          114

  Parameters: 
  sigma     1.0000
  eta       1.4086
  alpha     0.2908
  beta      1.9526

  dmp_scal      4.0000
  dmp_exp       6.0000
 cutoffs: 
   distance [bohr] 60.0
   noise    [a.u.] 2.2E-16
 SR-damping   T
 ** gCP correction **
  Egcp:        0.4929966527 / (a.u.) ||     309.3601 / (kcal/mol)
 INFORMATION **** GCP **** NORMAL TERMINATION OF GCP MODULE

 *******************************************************************************

 DFT-D3-GCP DISPERSION AND COUNTERPOISE CORRECTION

 D3 DISPERSION ENERGY (AU)      -8.8513917307579E-02
 GCP ENERGY (AU)                 4.9299665272935E-01
 TOTAL ENERGY + DISP + GCP (AU) -2.8988969871203E+03

 *******************************************************************************

 EIGENVECTORS IN FORTRAN UNIT 10
 TTTTTTTTTTTTTTTTTTTTTTTTTTTTTT END         TELAPSE      635.45 TCPU      634.22
 EEEEEEEEEE TERMINATION  DATE 25 03 2019 TIME 18:03:16.4
NODE    0 CPU TIME =       634.215
NODE    1 CPU TIME =       634.990
NODE    2 CPU TIME =       634.985
NODE    3 CPU TIME =       635.004
NODE    4 CPU TIME =       634.950
NODE    5 CPU TIME =       635.057
NODE    6 CPU TIME =       635.012
NODE    7 CPU TIME =       634.598
    TOTAL CPU TIME =      5078.812
