 PROCESS            6  OF            8  WORKING
 PROCESS            0  OF            8  WORKING
 PROCESS            5  OF            8  WORKING
 PROCESS            3  OF            8  WORKING
 PROCESS            1  OF            8  WORKING
 PROCESS            7  OF            8  WORKING
 PROCESS            2  OF            8  WORKING
 PROCESS            4  OF            8  WORKING

         
 *******************************************************************************
 *                                                                             *
 *                               CRYSTAL17                                     *
 *                      public : 1.0.1 - Feb 1st, 2017                         *
 *                       HTTP://WWW.CRYSTAL.UNITO.IT                           *
 *                                                                             *
 *                              MAIN AUTHORS                                   *
 *                                                                             *
 *  R. DOVESI(1,11), V.R. SAUNDERS(2), C. ROETTI(1,11), R. ORLANDO(1,11),      *
 *  C.M. ZICOVICH-WILSON(1,3), F. PASCALE(4), B. CIVALLERI(1,11),              *
 *  K. DOLL(5), N.M. HARRISON(2,6), I.J. BUSH(7), Ph. D'ARCO(8),               *
 *  M. LLUNELL(9), M. CAUSA'(10), Y. NOEL(8), L. MASCHIO(1,11), A. ERBA(1,11)  *
 *  M. RE'RAT(14), S. CASASSA(1,11)                                            *
 *                                                                             *
 *        CONTRIBUTIONS TO THE CODE HAVE ALSO BEEN GIVEN BY                    *
 *                                                                             *
 *  M. FERRABONE(1,11), M. DE LA PIERRE(1,11), M. FERRERO(1,11),               *
 *  J. BAIMA(1,11), E. ALBANESE(1,11), M.F. PEINTINGER(12), R. BAST(13),       *
 *  B. KIRTMAN(15), V. LACIVITA(1,11), R. DEMICHELIS(1,16)                     *
 *  G. BRANDEBURG(17), S. SALUSTRO(1,11), G. SANSONE(1,11)                     *
 *  M.T. RUGGIERO(18)                                                          *
 *                                                                             *
 * (1) THEORETICAL CHEMISTRY GROUP - UNIVERSITA' DI TORINO - TORINO (ITALY)    *

 * (2) COMPUTATIONAL SCIENCE & ENGINEERING DEPARTMENT - STFC DARESBURY (UK)    *
 * (3) UNIVERSIDAD AUTONOMA DEL ESTADO DE MORELOS - CUERNAVACA (MEXICO)        *
 * (4) UNIVERSITE' DE LORRAINE - NANCY (FRANCE)                                *
 * (5) UNIVERSITAET STUTTGART- STUTTGART (GERMANY)                             *
 * (6) IMPERIAL COLLEGE - LONDON (UK)                                          *
 * (7) OXFORD E-RESEARCH CENTRE - OXFORD (UK)                                  *
 * (8) UPMC - SORBONNE UNIVERSITES - PARIS (FRANCE)                            *
 * (9) UNIVERSIDAD DE BARCELONA - BARCELONA (SPAIN)                            *
 *(10) UNIVERSITA' DI NAPOLI "FEDERICO II" - NAPOLI (ITALY)                    *
 *(11) NIS - NANOSTRUCTURED INTERFACES AND SURFACES - TORINO (ITALY)           *
 *(12) MPI FUER CHEMISCHE ENERGIEKONVERSION - MUELHEIM AN DER RUHR (GERMANY)   *
 *(13) UNIVERSITY OF TROMSO - TROMSO (NORWAY)                                  *
 *(14) UNIVERSITE' DE PAU ET DES PAYS DE L'ADOUR - PAU (FRANCE)                *
 *(15) UNIVERSITY OF CALIFORNIA SANTA BARBARA - SANTA BARBARA (USA)            *
 *(16) CURTIN UNIVERSITY - PERTH (AUSTRALIA)                                   *
 *(17) UNIVERSITY COLLEGE LONDON - LONDON (UK)                                 *
 *(18) CAMBRIDGE UNIVERSITY - CAMBRIDGE (UK)                                   *
 *                                                                             *
 *******************************************************************************
 EEEEEEEEEE STARTING  DATE 25 03 2019 TIME 22:17:54.4
 !drive by JGB                                                                   

 CRYSTAL CALCULATION
 (INPUT ACCORDING TO THE INTERNATIONAL TABLES FOR X-RAY CRYSTALLOGRAPHY)
 CRYSTAL FAMILY                       :  TRICLINIC   
 CRYSTAL CLASS  (GROTH - 1921)        :  TRICLINIC PEDIAL                     

 SPACE GROUP (NONCENTROSYMMETRIC)     :  P 1             

 LATTICE PARAMETERS  (ANGSTROMS AND DEGREES) - CONVENTIONAL CELL
        A           B           C        ALPHA        BETA       GAMMA
     6.18979     6.36247     6.22673   105.31007    63.01269    73.35851


 NUMBER OF IRREDUCIBLE ATOMS IN THE CONVENTIONAL CELL:   24

 INPUT COORDINATES

 ATOM AT. N.              COORDINATES
   1   8     7.094735069230E-01  5.143438695633E-02  9.759845527879E-02
   2   8     3.725403291163E-01  9.058943548229E-01  2.212506394272E-02
   3   8     6.782878773015E-01  5.153272510858E-01  2.445678547602E-01
   4   8     4.275597456552E-01  4.405079741570E-01  8.772872802274E-01
   5   8     2.316013733641E-01  9.290923829672E-01  6.770254398450E-01
   6   8     8.620038866611E-01  2.008798214040E-02  4.330242223808E-01
   7   8     7.713722612395E-02  4.030782722096E-01  7.334650110965E-01
   8   8     2.232510661991E-02  5.599290232213E-01  3.878322076152E-01
   9   1     8.892562649854E-01  9.833156939871E-01  9.275406374166E-01
  10   1     7.519736339505E-01  2.195234962122E-02  2.249714063935E-01
  11   1     4.942286385600E-01  9.590948656458E-01  5.485786142052E-02
  12   1     1.945579492694E-01  9.808562297974E-01  1.961065495785E-01
  13   1     5.007314560915E-01  6.645454428698E-01  3.871616663483E-01
  14   1     6.480408301659E-01  3.708537294802E-01  2.148879885931E-01
  15   1     4.399989373164E-01  5.948784393190E-01  9.120141747772E-01
  16   1     3.117964606037E-01  4.553802456955E-01  5.839398209942E-02
  17   1     2.977040929651E-01  9.365324816945E-01  7.945940121893E-01
  18   1     1.911914174204E-01  8.558908445495E-02  6.673175008288E-01
  19   1     7.176348279738E-01  1.651723907829E-01  6.102390530383E-01
  20   1     9.021435658663E-01  8.699006755415E-01  4.560616822900E-01
  21   1     9.086642645231E-01  4.721083010308E-01  9.150729796798E-01
  22   1     2.083359153130E-01  4.328330150899E-01  7.676040945395E-01
  23   1     8.944828506404E-01  5.200411394136E-01  3.560267449035E-01
  24   1     3.634984259013E-02  5.039342880153E-01  5.159241307570E-01

 *******************************************************************************

 << INFORMATION >>: FROM NOW ON, ALL COORDINATES REFER TO THE PRIMITIVE CELL

 *******************************************************************************

 LATTICE PARAMETERS  (ANGSTROMS AND DEGREES) - PRIMITIVE CELL
       A          B          C        ALPHA      BETA     GAMMA        VOLUME
    6.18979    6.36247    6.22673   105.31007  63.01269  73.35851    185.741041

 COORDINATES OF THE EQUIVALENT ATOMS (FRACTIONAL UNITS)

 N. ATOM EQUIV AT. N.          X                  Y                  Z

   1   1   1    8 O    -2.90526493077E-01  5.14343869563E-02  9.75984552788E-02

   2   2   1    8 O     3.72540329116E-01 -9.41056451771E-02  2.21250639427E-02

   3   3   1    8 O    -3.21712122699E-01 -4.84672748914E-01  2.44567854760E-01

   4   4   1    8 O     4.27559745655E-01  4.40507974157E-01 -1.22712719773E-01

   5   5   1    8 O     2.31601373364E-01 -7.09076170328E-02 -3.22974560155E-01

   6   6   1    8 O    -1.37996113339E-01  2.00879821404E-02  4.33024222381E-01

   7   7   1    8 O     7.71372261240E-02  4.03078272210E-01 -2.66534988904E-01

   8   8   1    8 O     2.23251066199E-02 -4.40070976779E-01  3.87832207615E-01

   9   9   1    1 H    -1.10743735015E-01 -1.66843060129E-02 -7.24593625834E-02

  10  10   1    1 H    -2.48026366050E-01  2.19523496212E-02  2.24971406393E-01

  11  11   1    1 H     4.94228638560E-01 -4.09051343542E-02  5.48578614205E-02

  12  12   1    1 H     1.94557949269E-01 -1.91437702026E-02  1.96106549578E-01

  13  13   1    1 H    -4.99268543908E-01 -3.35454557130E-01  3.87161666348E-01

  14  14   1    1 H    -3.51959169834E-01  3.70853729480E-01  2.14887988593E-01

  15  15   1    1 H     4.39998937316E-01 -4.05121560681E-01 -8.79858252228E-02

  16  16   1    1 H     3.11796460604E-01  4.55380245696E-01  5.83939820994E-02

  17  17   1    1 H     2.97704092965E-01 -6.34675183055E-02 -2.05405987811E-01

  18  18   1    1 H     1.91191417420E-01  8.55890844550E-02 -3.32682499171E-01

  19  19   1    1 H    -2.82365172026E-01  1.65172390783E-01 -3.89760946962E-01

  20  20   1    1 H    -9.78564341337E-02 -1.30099324459E-01  4.56061682290E-01

  21  21   1    1 H    -9.13357354769E-02  4.72108301031E-01 -8.49270203202E-02

  22  22   1    1 H     2.08335915313E-01  4.32833015090E-01 -2.32395905461E-01

  23  23   1    1 H    -1.05517149360E-01 -4.79958860586E-01  3.56026744904E-01

  24  24   1    1 H     3.63498425901E-02 -4.96065711985E-01 -4.84075869243E-01

 NUMBER OF SYMMETRY OPERATORS         :    1
 *******************************************************************************
 * GEOMETRY EDITING - INPUT COORDINATES ARE GIVEN IN ANGSTROM         
 *******************************************************************************

 GCALCO - MAX INDICES DIRECT LATTICE VECTOR    15    14    15
 NO.OF VECTORS CREATED 6999 STARS 3500 RMAX   127.80033 BOHR

 GEOMETRY FOR WAVE FUNCTION - DIMENSIONALITY OF THE SYSTEM    3
 (NON PERIODIC DIRECTION: LATTICE PARAMETER FORMALLY SET TO 500)
 *******************************************************************************
 LATTICE PARAMETERS (ANGSTROMS AND DEGREES) - BOHR = 0.5291772083 ANGSTROM
 PRIMITIVE CELL - CENTRING CODE 1/0 VOLUME=   185.741041 - DENSITY  1.288 g/cm^3
         A              B              C           ALPHA      BETA       GAMMA 
     6.18979005     6.36246839     6.22673363   105.310070  63.012694  73.358510
 *******************************************************************************
 ATOMS IN THE ASYMMETRIC UNIT   24 - ATOMS IN THE UNIT CELL:   24
     ATOM                 X/A                 Y/B                 Z/C    
 *******************************************************************************
      1 T   8 O    -2.905264930770E-01  5.143438695633E-02  9.759845527879E-02
      2 T   8 O     3.725403291163E-01 -9.410564517707E-02  2.212506394272E-02
      3 T   8 O    -3.217121226985E-01 -4.846727489142E-01  2.445678547602E-01
      4 T   8 O     4.275597456552E-01  4.405079741570E-01 -1.227127197726E-01
      5 T   8 O     2.316013733641E-01 -7.090761703276E-02 -3.229745601550E-01
      6 T   8 O    -1.379961133389E-01  2.008798214040E-02  4.330242223808E-01
      7 T   8 O     7.713722612395E-02  4.030782722096E-01 -2.665349889035E-01
      8 T   8 O     2.232510661991E-02 -4.400709767787E-01  3.878322076152E-01
      9 T   1 H    -1.107437350146E-01 -1.668430601292E-02 -7.245936258336E-02
     10 T   1 H    -2.480263660495E-01  2.195234962122E-02  2.249714063935E-01
     11 T   1 H     4.942286385600E-01 -4.090513435421E-02  5.485786142052E-02
     12 T   1 H     1.945579492694E-01 -1.914377020257E-02  1.961065495785E-01
     13 T   1 H    -4.992685439085E-01 -3.354545571302E-01  3.871616663483E-01
     14 T   1 H    -3.519591698341E-01  3.708537294802E-01  2.148879885931E-01
     15 T   1 H     4.399989373164E-01 -4.051215606810E-01 -8.798582522276E-02
     16 T   1 H     3.117964606037E-01  4.553802456955E-01  5.839398209942E-02
     17 T   1 H     2.977040929651E-01 -6.346751830546E-02 -2.054059878107E-01
     18 T   1 H     1.911914174204E-01  8.558908445495E-02 -3.326824991712E-01
     19 T   1 H    -2.823651720262E-01  1.651723907829E-01 -3.897609469617E-01
     20 T   1 H    -9.785643413370E-02 -1.300993244585E-01  4.560616822900E-01
     21 T   1 H    -9.133573547689E-02  4.721083010308E-01 -8.492702032024E-02
     22 T   1 H     2.083359153130E-01  4.328330150899E-01 -2.323959054605E-01
     23 T   1 H    -1.055171493596E-01 -4.799588605864E-01  3.560267449035E-01
     24 T   1 H     3.634984259013E-02 -4.960657119847E-01 -4.840758692430E-01

 T = ATOM BELONGING TO THE ASYMMETRIC UNIT

 ****    1 SYMMOPS - TRANSLATORS IN FRACTIONAL UNITS
 **** MATRICES AND TRANSLATORS IN THE CRYSTALLOGRAPHIC REFERENCE FRAME
   V INV                    ROTATION MATRICES                   TRANSLATORS
   1   1  1.00 -0.00  0.00  0.00  1.00  0.00  0.00 -0.00  1.00  0.00  0.00  0.00

 DIRECT LATTICE VECTORS CARTESIAN COMPONENTS (ANGSTROM)
          X                    Y                    Z
   0.593053345239E+01   0.177264599769E+01   0.000000000000E+00
   0.000000000000E+00   0.636246839000E+01   0.000000000000E+00
   0.344060441512E+01  -0.164412275875E+01   0.492253118952E+01


 CARTESIAN COORDINATES - PRIMITIVE CELL
 *******************************************************************************
 *      ATOM          X(ANGSTROM)         Y(ANGSTROM)         Z(ANGSTROM)
 *******************************************************************************
    1     8 O    -1.387179409859E+00 -3.482148055498E-01  4.804314401590E-01
    2     8 O     2.285486476876E+00  2.526160945904E-02  1.089113173282E-01
    3     8 O    -1.066463264821E+00  2.306372062759E+00  1.203892893012E+00
    4     8 O     2.113451449065E+00 -2.600083481608E+00 -6.040571904317E-01
    5     8 O     2.622919947169E-01  4.904096004207E-01 -1.589852345785E+00
    6     8 O     6.714744849186E-01 -8.287540857267E-01  2.131575240488E+00
    7     8 O    -4.595765596511E-01  3.139526002051E+00 -1.312026795976E+00
    8     8 O     1.466776997482E+00  2.964461462670E+00  1.909116138287E+00
    9     1 H    -9.060734279678E-01 -1.833307211511E-01 -3.566834722895E-01
   10     1 H    -6.968910468200E-01 -6.698724238677E-01  1.107428764723E+00
   11     1 H    -2.810749778075E+00 -1.247004262378E+00  2.700395338330E-01
   12     1 H     1.828557486884E+00 -9.934250399056E-02  9.653406067697E-01
   13     1 H     8.610703745024E-01 -2.391179526725E-01 -3.016715811535E+00
   14     1 H    -1.347961068269E+00  1.382343884747E+00  1.057792826103E+00
   15     1 H     2.306703998043E+00 -1.652951271023E+00 -4.331129688949E-01
   16     1 H     2.050029932575E+00 -3.008428098293E+00  2.874461981648E-01
   17     1 H     1.058823333691E+00  4.616265492234E-01 -1.011117381513E+00
   18     1 H    -1.076177865780E-02  1.430443413582E+00 -1.637639978378E+00
   19     1 H     4.250150816671E-01 -4.529372922014E-01  3.003920771645E+00
   20     1 H     9.887869814900E-01 -1.751039046990E+00  2.244977855418E+00
   21     1 H    -8.338699157210E-01  2.981498662967E+00 -4.180559063596E-01
   22     1 H     4.359607367166E-01 -2.857188789679E+00 -1.143976092947E+00
   23     1 H     5.991742063358E-01  2.536349084499E+00  1.752552756092E+00
   24     1 H    -1.449939615498E+00 -2.295886855297E+00 -2.382878564444E+00

 *******************************************************************************
 STARTING BASIS SET HANDLING 
 *******************************************************************************

 Loading internal basis set: DEF2-MSVP           

 Please cite in your publication:
 Fully Optimized Contracted Gaussian Basis Sets for Atoms Li to Kr. A. Schäfer, 
 H. Horn and R. Ahlrichs; J. Chem. Phys. 97, 2571 (1992).                       
                                                                                
                    
 S. Grimme, J. G. Brandenburg, C. Bannwarth, and A. Hansen, J. Chem. Phys., 143,
  054107 (2015).                                                                
                                                                                
                    

 *******************************************************************************
 LOCAL ATOMIC FUNCTIONS BASIS SET
 *******************************************************************************
   ATOM   X(AU)   Y(AU)   Z(AU)  N. TYPE  EXPONENT  S COEF   P COEF   D/F/G COEF
 *******************************************************************************
   1 O   -2.621  -0.658   0.908
                                  1 S  
                                         6.773E+03 1.727E-03 0.000E+00 0.000E+00
                                         1.017E+03 1.325E-02 0.000E+00 0.000E+00
                                         2.313E+02 6.603E-02 0.000E+00 0.000E+00
                                         6.501E+01 2.353E-01 0.000E+00 0.000E+00
                                         2.050E+01 5.498E-01 0.000E+00 0.000E+00
                                  2 S  
                                         6.716E+00 1.000E+00 0.000E+00 0.000E+00
                                  3 S  
                                         1.147E+00 1.000E+00 0.000E+00 0.000E+00
                                  4 S  
                                         3.342E-01 1.000E+00 0.000E+00 0.000E+00
                           5-     7 P  
                                         1.769E+01 0.000E+00 4.359E-02 0.000E+00
                                         3.854E+00 0.000E+00 2.318E-01 0.000E+00
                                         1.047E+00 0.000E+00 5.146E-01 0.000E+00
                           8-    10 P  
                                         2.759E-01 0.000E+00 1.000E+00 0.000E+00
                          11-    15 D  
                                         8.000E-01 0.000E+00 0.000E+00 1.000E+00
   2 O    4.319   0.048   0.206
   3 O   -2.015   4.358   2.275
   4 O    3.994  -4.913  -1.142
   5 O    0.496   0.927  -3.004
   6 O    1.269  -1.566   4.028
   7 O   -0.868   5.933  -2.479
   8 O    2.772   5.602   3.608
   9 H   -1.712  -0.346  -0.674
                                121 S  
                                         1.874E+01 1.968E-02 0.000E+00 0.000E+00
                                         2.826E+00 1.380E-01 0.000E+00 0.000E+00
                                         6.401E-01 4.783E-01 0.000E+00 0.000E+00
                                122 S  
                                         1.756E-01 1.000E+00 0.000E+00 0.000E+00
  10 H   -1.317  -1.266   2.093
  11 H   -5.312  -2.356   0.510
  12 H    3.455  -0.188   1.824
  13 H    1.627  -0.452  -5.701
  14 H   -2.547   2.612   1.999
  15 H    4.359  -3.124  -0.818
  16 H    3.874  -5.685   0.543
  17 H    2.001   0.872  -1.911
  18 H   -0.020   2.703  -3.095
  19 H    0.803  -0.856   5.677
  20 H    1.869  -3.309   4.242
  21 H   -1.576   5.634  -0.790
  22 H    0.824  -5.399  -2.162
  23 H    1.132   4.793   3.312
  24 H   -2.740  -4.339  -4.503

 *******************************************************************************
 FINISHED BASIS SET HANDLING 
 *******************************************************************************

 INFORMATION **** SET_MPP **** PCRYSTAL CALCULATION
 INFORMATION **** READM2 **** NEW DEFAULT: FOCK/KS MATRIX MIXING SET TO 30 %
 INFORMATION **** READM2 **** NEW DEFAULT: FULL DIRECT SCF MODE
 INFORMATION **** READM2 **** NEW DEFAULT: COULOMB BIPOLAR BUFFER SET TO 32 Mb
 INFORMATION **** READM2 **** NEW DEFAULT: EXCHANGE BIPOLAR BUFFER SET TO 32 Mb

 *******************************************************************************
 NEW DEFAULT: DFT INTEGRATION GRID INCREASED TO XLGRID
 NEW DEFAULT: DIIS ACCELERATOR ACTIVE
 USE KEYWORD NODIIS TO TURN IT OFF
 *******************************************************************************

 INFORMATION **** RDDFTP **** HSE-3c calculation
 INFORMATION **** RDDFTP **** HSE screened hybrid functional combined with D3 and gCP

PLEASE CITE:
(1) HSE-3c Reference
 J. G. Brandenburg, E. Caldeweyer, and S. Grimme, 
 Phys. Chem. Chem. Phys. 18, 15519 (2016)
(2) DFT-D3 Reference
 S. Grimme, J. Antony, S. Ehrlich,
 and H. Krieg, J. Chem. Phys. 132, 154104 (2010)
(3) gCP Reference
 H. Kruse and S. Grimme J. Chem. Phys, 136, 154101 (2012)
 J. G. Brandenburg, M. Alessio, B. Civalleri, M. F. Peintinger
 T. Bredow, and S. Grimme, J. Phys. Chem. A, 117, 9282 (2013) 

 WARNING **** RDDFTP **** HSE3c-HJS ACTIVE
 RANGE SEPARATION - OMEGA:   0.110000000000000     
 WARNING **** RDDFTP **** HSE-3c has to be combined with def2-mSVP basis set
 WARNING **** RDDFTP **** Note: Harmonic frequencies are scaled by 0.95
 WARNING **** RDDFTP **** as recommended in original publication
 INFORMATION **** BIPOSIZE **** COULOMB BIPOLAR BUFFER SET TO    60000000
 INFORMATION **** EXCHSIZE **** EXCHANGE BIPOLAR BUFFER SIZE SET TO    40000000
 *******************************************************************************
 N. OF ATOMS PER CELL        24  COULOMB OVERLAP TOL         (T1) 10**   -6
 NUMBER OF SHELLS            88  COULOMB PENETRATION TOL     (T2) 10**   -6
 NUMBER OF AO               152  EXCHANGE OVERLAP TOL        (T3) 10**   -6
 N. OF ELECTRONS PER CELL    80  EXCHANGE PSEUDO OVP (F(G))  (T4) 10**   -6
 CORE ELECTRONS PER CELL     16  EXCHANGE PSEUDO OVP (P(G))  (T5) 10**  -12
 N. OF SYMMETRY OPERATORS     1  POLE ORDER IN MONO ZONE                  4
 *******************************************************************************
 TYPE OF CALCULATION :  RESTRICTED CLOSED SHELL
 KOHN-SHAM HAMILTONIAN

 (EXCHANGE)[CORRELATION] FUNCTIONAL:(HSE-3c)[PBEh-3c]

 RANGE-SEPARATED HYBRID FUNCTIONAL 
 OMEGA (SHORT-RANGE)[LONG-RANGE]:(    0.1100)[    0.0000]

 HYBRID EXCHANGE - PERCENTAGE OF FOCK EXCHANGE    42.0000

 CAPPA:IS1  2;IS2  2;IS3  2; K PTS MONK NET   8; SYMMOPS:K SPACE   2;G SPACE   1

 *******************************************************************************
 MAX NUMBER OF SCF CYCLES      50  CONVERGENCE ON DELTAP        10**-16
 WEIGHT OF F(I) IN F(I+1)      30% CONVERGENCE ON ENERGY        10**- 6
 S(K) EIGENV. THRESHOLD  10*10.**-4
 SHRINK. FACT.(MONKH.)    2  2  2  NUMBER OF K POINTS IN THE IBZ      8
 SHRINKING FACTOR(GILAT NET)    2  NUMBER OF K POINTS(GILAT NET)      8
 *******************************************************************************
 *** K POINTS COORDINATES (OBLIQUE COORDINATES IN UNITS OF IS =  2)
   1-R(  0  0  0)   2-R(  1  0  0)   3-R(  0  1  0)   4-R(  1  1  0)
   5-R(  0  0  1)   6-R(  1  0  1)   7-R(  0  1  1)   8-R(  1  1  1)

 DIRECT LATTICE VECTORS COMPON. (A.U.)     RECIP. LATTICE VECTORS COMPON. (A.U.) 
        X            Y            Z              X            Y            Z
   11.2070841    3.3498155    0.0000000      0.5606441    0.0000000   -0.3918623
    0.0000000   12.0233228    0.0000000     -0.1562009    0.5225831    0.2837192
    6.5018001   -3.1069417    9.3022358      0.0000000    0.0000000    0.6754489

 DISK SPACE FOR EIGENVECTORS (FTN 10)      184832 REALS

 SYMMETRY ADAPTION OF THE BLOCH FUNCTIONS DISABLED
 TTTTTTTTTTTTTTTTTTTTTTTTTTTTTT gordsh1     TELAPSE        0.31 TCPU        0.05

 MATRIX SIZE: P(G)  100590, F(G)   17943, P(G) IRR   51011, F(G) IRR   18071
 MAX G-VECTOR INDEX FOR 1- AND 2-ELECTRON INTEGRALS  77

 TTTTTTTTTTTTTTTTTTTTTTTTTTTTTT INPUT       TELAPSE        0.31 TCPU        0.06

 NEIGHBORS OF THE NON-EQUIVALENT ATOMS

 N = NUMBER OF NEIGHBORS AT DISTANCE R
    ATOM  N     R/ANG      R/AU   NEIGHBORS (ATOM LABELS AND CELL INDICES)
   1 O    1     0.9795     1.8510    9 H    0 0 0
   1 O    1     0.9865     1.8641   10 H    0 0 0
   1 O    1     1.6967     3.2062   11 H    0 0 0
   1 O    1     1.8248     3.4483   14 H    0 0 0
   1 O    1     2.6821     5.0684    2 O   -1 0 0
   1 O    1     2.6824     5.0690    6 O    0 0 0

   2 O    1     0.9787     1.8494   12 H    0 0 0
   2 O    1     0.9861     1.8635   11 H    1 0 0
   2 O    1     1.7174     3.2455   17 H    0 0 0
   2 O    1     1.7637     3.3329   15 H    0 0 0
   2 O    1     2.6821     5.0684    1 O    1 0 0
   2 O    1     2.6824     5.0691    5 O    0 0 0

   3 O    1     0.9769     1.8462   14 H    0 0 0
   3 O    1     0.9845     1.8604   13 H   -1 1 1
   3 O    1     1.7687     3.3423   23 H    0 0 0
   3 O    1     1.7722     3.3489   21 H    0 0 0
   3 O    1     2.6751     5.0553    5 O   -1 1 1
   3 O    1     2.7107     5.1224    8 O    0 0 0

   4 O    1     0.9816     1.8550   15 H    0 0 0
   4 O    1     0.9826     1.8569   16 H    0 0 0
   4 O    1     1.7344     3.2775   19 H    1-1-1
   4 O    1     1.7809     3.3654   22 H    0 0 0
   4 O    1     2.6944     5.0917    6 O    1-1-1
   4 O    1     2.7149     5.1305    8 O    0-1 0

   5 O    1     0.9801     1.8520   18 H    0 0 0
   5 O    1     0.9850     1.8614   17 H    0 0 0
   5 O    1     1.7108     3.2329   13 H    0 0 0
   5 O    1     1.8275     3.4535    9 H    0 0 0
   5 O    1     2.6751     5.0553    3 O    1-1-1
   5 O    1     2.6824     5.0691    2 O    0 0 0

   6 O    1     0.9813     1.8544   19 H    0 0 0
   6 O    1     0.9819     1.8556   20 H    0 0 0
   6 O    1     1.7165     3.2438   10 H    0 0 0
   6 O    1     1.7975     3.3968   12 H    0 0 0
   6 O    1     2.6824     5.0690    1 O    0 0 0
   6 O    1     2.6944     5.0917    4 O   -1 1 1

   7 O    1     0.9818     1.8554   22 H    0 1 0
   7 O    1     0.9820     1.8556   21 H    0 0 0
   7 O    1     1.7283     3.2660   24 H    0 1 0
   7 O    1     1.7968     3.3954   18 H    0 0 0
   7 O    1     2.7103     5.1218    8 O    0 0-1
   7 O    1     2.7189     5.1379    3 O    0 0 0

   8 O    1     0.9801     1.8521   23 H    0 0 0
   8 O    1     0.9828     1.8571   24 H    0 1 1
   8 O    1     1.7475     3.3023   20 H    0 1 0
   8 O    1     1.7669     3.3389   16 H    0 1 0
   8 O    1     2.6987     5.0998    6 O    0 1 0
   8 O    1     2.7103     5.1218    7 O    0 0 1

   9 H    1     0.9795     1.8510    1 O    0 0 0
   9 H    1     1.5570     2.9422   10 H    0 0 0
   9 H    1     1.8275     3.4535    5 O    0 0 0
   9 H    1     2.1558     4.0738   14 H    0 0 0
   9 H    1     2.1691     4.0990   17 H    0 0 0
   9 H    1     2.2465     4.2452   18 H    0 0 0

  10 H    1     0.9865     1.8641    1 O    0 0 0
  10 H    1     1.5570     2.9422    9 H    0 0 0
  10 H    1     1.7165     3.2438    6 O    0 0 0
  10 H    1     2.1536     4.0697   14 H    0 0 0
  10 H    1     2.2141     4.1841   19 H    0 0 0
  10 H    1     2.3031     4.3523   20 H    0 0 0

  11 H    1     0.9861     1.8635    2 O   -1 0 0
  11 H    1     1.5941     3.0125   12 H   -1 0 0
  11 H    1     1.6967     3.2062    1 O    0 0 0
  11 H    1     2.2698     4.2893    9 H    0 0 0
  11 H    1     2.3458     4.4329   10 H    0 0 0
  11 H    1     2.4276     4.5874   17 H   -1 0 0

  12 H    1     0.9787     1.8494    2 O    0 0 0
  12 H    1     1.5941     3.0125   11 H    1 0 0
  12 H    1     1.7975     3.3968    6 O    0 0 0
  12 H    1     2.1443     4.0521   15 H    0 0 0
  12 H    1     2.1940     4.1460   17 H    0 0 0
  12 H    1     2.2518     4.2554   20 H    0 0 0

  13 H    1     0.9845     1.8604    3 O    1-1-1
  13 H    1     1.5974     3.0186   14 H    1-1-1
  13 H    1     1.7108     3.2329    5 O    0 0 0
  13 H    1     2.1337     4.0321   17 H    0 0 0
  13 H    1     2.2398     4.2326   23 H    1-1-1
  13 H    1     2.3344     4.4114   18 H    0 0 0

  14 H    1     0.9769     1.8462    3 O    0 0 0
  14 H    1     1.5974     3.0186   13 H   -1 1 1
  14 H    1     1.8248     3.4483    1 O    0 0 0
  14 H    1     2.1536     4.0697   10 H    0 0 0
  14 H    1     2.1558     4.0738    9 H    0 0 0
  14 H    1     2.2360     4.2254   21 H    0 0 0

  15 H    1     0.9816     1.8550    4 O    0 0 0
  15 H    1     1.5564     2.9412   16 H    0 0 0
  15 H    1     1.7637     3.3329    2 O    0 0 0
  15 H    1     2.1443     4.0521   12 H    0 0 0
  15 H    1     2.3356     4.4137   22 H    0 0 0
  15 H    1     2.3715     4.4815   19 H    1-1-1

  16 H    1     0.9826     1.8569    4 O    0 0 0
  16 H    1     1.5564     2.9412   15 H    0 0 0
  16 H    1     1.7669     3.3389    8 O    0-1 0
  16 H    1     2.1627     4.0868   22 H    0 0 0
  16 H    1     2.2181     4.1917   23 H    0-1 0
  16 H    1     2.4015     4.5381   19 H    1-1-1

  17 H    1     0.9850     1.8614    5 O    0 0 0
  17 H    1     1.5733     2.9730   18 H    0 0 0
  17 H    1     1.7174     3.2455    2 O    0 0 0
  17 H    1     2.1337     4.0321   13 H    0 0 0
  17 H    1     2.1691     4.0990    9 H    0 0 0
  17 H    1     2.1940     4.1460   12 H    0 0 0

  18 H    1     0.9801     1.8520    5 O    0 0 0
  18 H    1     1.5733     2.9730   17 H    0 0 0
  18 H    1     1.7968     3.3954    7 O    0 0 0
  18 H    1     2.1379     4.0401   21 H    0 0 0
  18 H    1     2.1790     4.1178   22 H    0 1 0
  18 H    1     2.2465     4.2452    9 H    0 0 0

  19 H    1     0.9813     1.8544    6 O    0 0 0
  19 H    1     1.6059     3.0347   20 H    0 0 0
  19 H    1     1.7344     3.2775    4 O   -1 1 1
  19 H    1     2.2141     4.1841   10 H    0 0 0
  19 H    1     2.3715     4.4815   15 H   -1 1 1
  19 H    1     2.4015     4.5381   16 H   -1 1 1

  20 H    1     0.9819     1.8556    6 O    0 0 0
  20 H    1     1.6059     3.0347   19 H    0 0 0
  20 H    1     1.7475     3.3023    8 O    0-1 0
  20 H    1     2.1680     4.0969   23 H    0-1 0
  20 H    1     2.2518     4.2554   12 H    0 0 0
  20 H    1     2.3031     4.3523   10 H    0 0 0

  21 H    1     0.9820     1.8556    7 O    0 0 0
  21 H    1     1.5536     2.9359   22 H    0 1 0
  21 H    1     1.7722     3.3489    3 O    0 0 0
  21 H    1     2.1379     4.0401   18 H    0 0 0
  21 H    1     2.2360     4.2254   14 H    0 0 0
  21 H    1     2.3275     4.3984   24 H    0 1 0

  22 H    1     0.9818     1.8554    7 O    0-1 0
  22 H    1     1.5536     2.9359   21 H    0-1 0
  22 H    1     1.7809     3.3654    4 O    0 0 0
  22 H    1     2.1627     4.0868   16 H    0 0 0
  22 H    1     2.1790     4.1178   18 H    0-1 0
  22 H    1     2.3252     4.3940   24 H    0 0 0

  23 H    1     0.9801     1.8521    8 O    0 0 0
  23 H    1     1.6027     3.0287   24 H    0 1 1
  23 H    1     1.7687     3.3423    3 O    0 0 0
  23 H    1     2.1680     4.0969   20 H    0 1 0
  23 H    1     2.2181     4.1917   16 H    0 1 0
  23 H    1     2.2398     4.2326   13 H   -1 1 1

  24 H    1     0.9828     1.8571    8 O    0-1-1
  24 H    1     1.6027     3.0287   23 H    0-1-1
  24 H    1     1.7283     3.2660    7 O    0-1 0
  24 H    1     2.3252     4.3940   22 H    0 0 0
  24 H    1     2.3275     4.3984   21 H    0-1 0
  24 H    1     2.4253     4.5832   20 H    0 0-1


 SYMMETRY ALLOWED INTERNAL DEGREE(S) OF FREEDOM:  69
 TTTTTTTTTTTTTTTTTTTTTTTTTTTTTT SYMM        TELAPSE        0.32 TCPU        0.06
 TTTTTTTTTTTTTTTTTTTTTTTTTTTTTT INT_SCREEN  TELAPSE        0.32 TCPU        0.06

 DFT PARAMETERS

     ATOM       ELECTRONS   NET CHARGE   R(ANGSTROM)
   1   8  O       8.0000      0.0000     0.74000000
   9   1  H       1.0000      0.0000     1.11000000

 SIZE OF GRID=     516708
 TTTTTTTTTTTTTTTTTTTTTTTTTTTTTT MAKE_GRID2  TELAPSE        9.12 TCPU        8.65
 BECKE WEIGHT FUNCTION
 RADSAFE =     2.00
 TOLERANCES - DENSITY:10**- 6; POTENTIAL:10**- 9; GRID WGT:10**-14

 RADIAL INTEGRATION  - INTERVALS (POINTS,UPPER LIMIT):            1( 75,  4.0*R)

 ANGULAR INTEGRATION - INTERVALS (ACCURACY LEVEL [N. POINTS] UPPER LIMIT):
  1(  4[  86]   0.2)  2(  8[ 194]   0.5)  3( 12[ 350]   0.9)  4( 16[ 974]   3.5)
  5( 12[ 350]9999.0)
 TTTTTTTTTTTTTTTTTTTTTTTTTTTTTT INT_CALC    TELAPSE        9.15 TCPU        8.68
 EEEEEEEEEE INT_CALC TERMINATION  DATE 25 03 2019 TIME 22:18:03.4

 *******************************************************************************
 !drive by JGB                                                                   
 CRYSTAL - SCF - TYPE OF CALCULATION :  RESTRICTED CLOSED SHELL
 *******************************************************************************

 CAPPA:IS1  2;IS2  2;IS3  2; K PTS MONK NET   8; SYMMOPS:K SPACE   2;G SPACE   1

 TTTTTTTTTTTTTTTTTTTTTTTTTTTTTT SDIK        TELAPSE        9.34 TCPU        8.80

 AAAAAAAAAAAAAAAAAAAAAAAAAAAAAAAAAAAAAAAAAAAAAAAAAAAAAAAAAAAAAAAAAAAAAAAAAAAAAAA
         ATOMIC WAVEFUNCTION(S)


 NUCLEAR CHARGE  8.0  SYMMETRY SPECIES            S    P
 N. ELECTRONS    8.0  NUMBER OF PRIMITIVE GTOS    8    4
                      NUMBER OF CONTRACTED GTOS   4    2
                      NUMBER OF CLOSED SHELLS     2    0
                      OPEN SHELL OCCUPATION       0    4

  ZNUC SCFIT  TOTAL HF ENERGY   KINETIC ENERGY   VIRIAL THEOREM ACCURACY
   8.0  12   -7.477373220E+01  7.477365593E+01 -2.000001020E+00  3.8E-06

 NUCLEAR CHARGE  1.0  SYMMETRY SPECIES            S
 N. ELECTRONS    1.0  NUMBER OF PRIMITIVE GTOS    4
                      NUMBER OF CONTRACTED GTOS   2
                      NUMBER OF CLOSED SHELLS     0
                      OPEN SHELL OCCUPATION       1

  ZNUC SCFIT  TOTAL HF ENERGY   KINETIC ENERGY   VIRIAL THEOREM ACCURACY
   1.0   1   -4.977266687E-01  5.190767460E-01 -1.958869132E+00  1.8E-16

 AAAAAAAAAAAAAAAAAAAAAAAAAAAAAAAAAAAAAAAAAAAAAAAAAAAAAAAAAAAAAAAAAAAAAAAAAAAAAAA

 CHARGE NORMALIZATION FACTOR   1.00000000
 TOTAL ATOMIC CHARGES:
   8.0000000   8.0000000   8.0000000   8.0000000   8.0000000   8.0000000
   8.0000000   8.0000000   1.0000000   1.0000000   1.0000000   1.0000000
   1.0000000   1.0000000   1.0000000   1.0000000   1.0000000   1.0000000
   1.0000000   1.0000000   1.0000000   1.0000000   1.0000000   1.0000000
 TTTTTTTTTTTTTTTTTTTTTTTTTTTTTT MOQGAD      TELAPSE       12.21 TCPU       11.67
 TTTTTTTTTTTTTTTTTTTTTTTTTTTTTT SHELLXN     TELAPSE       31.66 TCPU       28.92
 TTTTTTTTTTTTTTTTTTTTTTTTTTTTTT MONMO3      TELAPSE       34.56 TCPU       31.73
 NUMERICALLY INTEGRATED DENSITY     80.0000067032
 TTTTTTTTTTTTTTTTTTTTTTTTTTTTTT NUMDFT      TELAPSE       35.52 TCPU       32.68
 CYC   0 ETOT(AU) -6.105905268791E+02 DETOT -6.11E+02 tst  0.00E+00 PX  1.00E+00
 TTTTTTTTTTTTTTTTTTTTTTTTTTTTTT DIIS        TELAPSE       35.53 TCPU       32.68
 TTTTTTTTTTTTTTTTTTTTTTTTTTTTTT FDIK        TELAPSE       35.83 TCPU       32.89
 INSULATING STATE
 TOP OF VALENCE BANDS -    BAND     40; K    8; EIG -4.1472176E-01 AU
 TOP OF VALENCE BANDS -    BAND     40; K    1; EIG -4.1520705E-01 AU
 BOTTOM OF VIRTUAL BANDS - BAND     41; K    1; EIG -9.4106167E-02 AU
 INDIRECT ENERGY BAND GAP:   8.7244 eV
 TTTTTTTTTTTTTTTTTTTTTTTTTTTTTT PDIG        TELAPSE       35.84 TCPU       32.90
 CHARGE NORMALIZATION FACTOR   1.00000000
 TOTAL ATOMIC CHARGES:
   9.0656944   9.0761348   9.0776268   9.0700273   9.0700752   9.0786390
   9.0627681   9.0795878   0.4681389   0.4669581   0.4544914   0.4633223
   0.4604925   0.4674262   0.4636021   0.4650819   0.4671893   0.4681760
   0.4571623   0.4617862   0.4654884   0.4685759   0.4657870   0.4557681
 TTTTTTTTTTTTTTTTTTTTTTTTTTTTTT MOQGAD      TELAPSE       35.85 TCPU       32.90
 TTTTTTTTTTTTTTTTTTTTTTTTTTTTTT SHELLXN     TELAPSE       53.88 TCPU       50.61
 TTTTTTTTTTTTTTTTTTTTTTTTTTTTTT MONMO3      TELAPSE       55.69 TCPU       52.41
 NUMERICALLY INTEGRATED DENSITY     80.0000056550
 TTTTTTTTTTTTTTTTTTTTTTTTTTTTTT NUMDFT      TELAPSE       58.01 TCPU       54.72
 CYC   1 ETOT(AU) -6.101684372082E+02 DETOT  4.22E-01 tst  0.00E+00 PX  1.00E+00
 TTTTTTTTTTTTTTTTTTTTTTTTTTTTTT DIIS        TELAPSE       58.10 TCPU       54.80
 DIIS TEST: 0.80784E+00 AT SCF   CYCLE   1 - MIX   30 %
 TTTTTTTTTTTTTTTTTTTTTTTTTTTTTT FDIK        TELAPSE       58.12 TCPU       54.82
 INSULATING STATE
 TOP OF VALENCE BANDS -    BAND     40; K    1; EIG -3.1949341E-01 AU
 BOTTOM OF VIRTUAL BANDS - BAND     41; K    1; EIG -3.3408444E-02 AU
 DIRECT ENERGY BAND GAP:   7.7848 eV
 TTTTTTTTTTTTTTTTTTTTTTTTTTTTTT PDIG        TELAPSE       58.12 TCPU       54.82
 CHARGE NORMALIZATION FACTOR   1.00000000
 TOTAL ATOMIC CHARGES:
   8.8544028   8.8685764   8.8642705   8.8608040   8.8563433   8.8680307
   8.8523154   8.8645355   0.5784821   0.5728515   0.5516249   0.5697139
   0.5607865   0.5782457   0.5685922   0.5704544   0.5747945   0.5778796
   0.5596326   0.5663144   0.5707150   0.5780668   0.5767826   0.5557848
 TTTTTTTTTTTTTTTTTTTTTTTTTTTTTT MOQGAD      TELAPSE       58.12 TCPU       54.83
 TTTTTTTTTTTTTTTTTTTTTTTTTTTTTT SHELLXN     TELAPSE       76.08 TCPU       72.52
 TTTTTTTTTTTTTTTTTTTTTTTTTTTTTT MONMO3      TELAPSE       77.82 TCPU       74.26
 NUMERICALLY INTEGRATED DENSITY     80.0000070160
 TTTTTTTTTTTTTTTTTTTTTTTTTTTTTT NUMDFT      TELAPSE       80.09 TCPU       76.53
 CYC   2 ETOT(AU) -6.103346736126E+02 DETOT -1.66E-01 tst  2.11E-03 PX  1.22E-01
 TTTTTTTTTTTTTTTTTTTTTTTTTTTTTT DIIS        TELAPSE       80.19 TCPU       76.63
 DIIS TEST: 0.17514E+00 AT SCF   CYCLE   2 - DIIS ACTIVE - HISTORY:     2 CYCLES
 TTTTTTTTTTTTTTTTTTTTTTTTTTTTTT FDIK        TELAPSE       80.25 TCPU       76.64
 INSULATING STATE
 TOP OF VALENCE BANDS -    BAND     40; K    1; EIG -3.6475544E-01 AU
 BOTTOM OF VIRTUAL BANDS - BAND     41; K    1; EIG -3.5980158E-02 AU
 DIRECT ENERGY BAND GAP:   8.9464 eV
 TTTTTTTTTTTTTTTTTTTTTTTTTTTTTT PDIG        TELAPSE       80.26 TCPU       76.64
 CHARGE NORMALIZATION FACTOR   1.00000000
 TOTAL ATOMIC CHARGES:
   8.9275168   8.9397768   8.9371523   8.9333569   8.9304602   8.9407398
   8.9255364   8.9382782   0.5410696   0.5365718   0.5162994   0.5339752
   0.5250209   0.5403821   0.5325266   0.5332333   0.5385214   0.5399714
   0.5245991   0.5297612   0.5333940   0.5419223   0.5400203   0.5199139
 TTTTTTTTTTTTTTTTTTTTTTTTTTTTTT MOQGAD      TELAPSE       80.26 TCPU       76.65
 TTTTTTTTTTTTTTTTTTTTTTTTTTTTTT SHELLXN     TELAPSE       98.21 TCPU       94.37
 TTTTTTTTTTTTTTTTTTTTTTTTTTTTTT MONMO3      TELAPSE       99.97 TCPU       96.13
 NUMERICALLY INTEGRATED DENSITY     80.0000066058
 TTTTTTTTTTTTTTTTTTTTTTTTTTTTTT NUMDFT      TELAPSE      102.27 TCPU       98.42
 CYC   3 ETOT(AU) -6.103805595760E+02 DETOT -4.59E-02 tst  2.43E-04 PX  4.32E-02
 TTTTTTTTTTTTTTTTTTTTTTTTTTTTTT DIIS        TELAPSE      102.28 TCPU       98.42
 DIIS TEST: 0.76953E-03 AT SCF   CYCLE   3 - DIIS ACTIVE - HISTORY:     3 CYCLES
 TTTTTTTTTTTTTTTTTTTTTTTTTTTTTT FDIK        TELAPSE      102.84 TCPU       98.43
 INSULATING STATE
 TOP OF VALENCE BANDS -    BAND     40; K    3; EIG -3.6260074E-01 AU
 TOP OF VALENCE BANDS -    BAND     40; K    1; EIG -3.6260887E-01 AU
 BOTTOM OF VIRTUAL BANDS - BAND     41; K    1; EIG -3.3518675E-02 AU
 INDIRECT ENERGY BAND GAP:   8.9548 eV
 TTTTTTTTTTTTTTTTTTTTTTTTTTTTTT PDIG        TELAPSE      102.85 TCPU       98.44
 CHARGE NORMALIZATION FACTOR   1.00000000
 TOTAL ATOMIC CHARGES:
   8.9252584   8.9383572   8.9350229   8.9313363   8.9276890   8.9386537
   8.9232891   8.9357170   0.5422449   0.5374421   0.5172958   0.5350082
   0.5262841   0.5414813   0.5334997   0.5343764   0.5394074   0.5412335
   0.5257928   0.5309381   0.5346307   0.5426659   0.5410604   0.5213150
 TTTTTTTTTTTTTTTTTTTTTTTTTTTTTT MOQGAD      TELAPSE      102.85 TCPU       98.44
 TTTTTTTTTTTTTTTTTTTTTTTTTTTTTT SHELLXN     TELAPSE      120.76 TCPU      116.16
 TTTTTTTTTTTTTTTTTTTTTTTTTTTTTT MONMO3      TELAPSE      122.45 TCPU      117.81
 NUMERICALLY INTEGRATED DENSITY     80.0000066203
 TTTTTTTTTTTTTTTTTTTTTTTTTTTTTT NUMDFT      TELAPSE      124.69 TCPU      119.99
 CYC   4 ETOT(AU) -6.103806737175E+02 DETOT -1.14E-04 tst  6.94E-07 PX  1.57E-03
 TTTTTTTTTTTTTTTTTTTTTTTTTTTTTT DIIS        TELAPSE      124.71 TCPU      120.00
 DIIS TEST: 0.15379E-04 AT SCF   CYCLE   4 - DIIS ACTIVE - HISTORY:     4 CYCLES
 TTTTTTTTTTTTTTTTTTTTTTTTTTTTTT FDIK        TELAPSE      124.73 TCPU      120.01
 INSULATING STATE
 TOP OF VALENCE BANDS -    BAND     40; K    1; EIG -3.6253313E-01 AU
 BOTTOM OF VIRTUAL BANDS - BAND     41; K    1; EIG -3.3242782E-02 AU
 DIRECT ENERGY BAND GAP:   8.9605 eV
 TTTTTTTTTTTTTTTTTTTTTTTTTTTTTT PDIG        TELAPSE      124.75 TCPU      120.03
 CHARGE NORMALIZATION FACTOR   1.00000000
 TOTAL ATOMIC CHARGES:
   8.9255220   8.9375757   8.9350218   8.9311812   8.9285579   8.9385984
   8.9234620   8.9362619   0.5421028   0.5374984   0.5172958   0.5352514
   0.5260449   0.5413858   0.5335933   0.5343834   0.5393897   0.5409509
   0.5257398   0.5308933   0.5345621   0.5427600   0.5410732   0.5208942
 TTTTTTTTTTTTTTTTTTTTTTTTTTTTTT MOQGAD      TELAPSE      124.75 TCPU      120.04
 TTTTTTTTTTTTTTTTTTTTTTTTTTTTTT SHELLXN     TELAPSE      142.74 TCPU      137.75
 TTTTTTTTTTTTTTTTTTTTTTTTTTTTTT MONMO3      TELAPSE      144.68 TCPU      139.53
 NUMERICALLY INTEGRATED DENSITY     80.0000066219
 TTTTTTTTTTTTTTTTTTTTTTTTTTTTTT NUMDFT      TELAPSE      147.00 TCPU      141.79
 CYC   5 ETOT(AU) -6.103806767768E+02 DETOT -3.06E-06 tst  4.31E-08 PX  5.35E-04
 TTTTTTTTTTTTTTTTTTTTTTTTTTTTTT DIIS        TELAPSE      147.02 TCPU      141.81
 DIIS TEST: 0.23061E-05 AT SCF   CYCLE   5 - DIIS ACTIVE - HISTORY:     5 CYCLES
 TTTTTTTTTTTTTTTTTTTTTTTTTTTTTT FDIK        TELAPSE      147.04 TCPU      141.82
 INSULATING STATE
 TOP OF VALENCE BANDS -    BAND     40; K    1; EIG -3.6253747E-01 AU
 BOTTOM OF VIRTUAL BANDS - BAND     41; K    1; EIG -3.3232099E-02 AU
 DIRECT ENERGY BAND GAP:   8.9609 eV
 TTTTTTTTTTTTTTTTTTTTTTTTTTTTTT PDIG        TELAPSE      147.05 TCPU      141.83
 CHARGE NORMALIZATION FACTOR   1.00000000
 TOTAL ATOMIC CHARGES:
   8.9252817   8.9383658   8.9351620   8.9313484   8.9278068   8.9386912
   8.9233411   8.9357954   0.5422378   0.5375293   0.5171378   0.5350133
   0.5261131   0.5413977   0.5334830   0.5343606   0.5395047   0.5411861
   0.5257187   0.5309020   0.5346091   0.5427607   0.5411661   0.5210873
 TTTTTTTTTTTTTTTTTTTTTTTTTTTTTT MOQGAD      TELAPSE      147.05 TCPU      141.84
 TTTTTTTTTTTTTTTTTTTTTTTTTTTTTT SHELLXN     TELAPSE      164.93 TCPU      159.53
 TTTTTTTTTTTTTTTTTTTTTTTTTTTTTT MONMO3      TELAPSE      166.81 TCPU      161.39
 NUMERICALLY INTEGRATED DENSITY     80.0000066231
 TTTTTTTTTTTTTTTTTTTTTTTTTTTTTT NUMDFT      TELAPSE      169.08 TCPU      163.65
 CYC   6 ETOT(AU) -6.103806771502E+02 DETOT -3.73E-07 tst  6.02E-09 PX  3.86E-04
 TTTTTTTTTTTTTTTTTTTTTTTTTTTTTT DIIS        TELAPSE      169.10 TCPU      163.66
 DIIS TEST: 0.89555E-06 AT SCF   CYCLE   6 - DIIS ACTIVE - HISTORY:     6 CYCLES
 TTTTTTTTTTTTTTTTTTTTTTTTTTTTTT FDIK        TELAPSE      169.12 TCPU      163.67
 INSULATING STATE
 TOP OF VALENCE BANDS -    BAND     40; K    1; EIG -3.6252106E-01 AU
 BOTTOM OF VIRTUAL BANDS - BAND     41; K    1; EIG -3.3228088E-02 AU
 DIRECT ENERGY BAND GAP:   8.9605 eV
 TTTTTTTTTTTTTTTTTTTTTTTTTTTTTT PDIG        TELAPSE      169.14 TCPU      163.67
 CHARGE NORMALIZATION FACTOR   1.00000000
 TOTAL ATOMIC CHARGES:
   8.9253521   8.9380012   8.9350216   8.9312554   8.9280843   8.9386220
   8.9233337   8.9359513   0.5422012   0.5375163   0.5172364   0.5351293
   0.5261290   0.5414283   0.5335468   0.5343842   0.5394560   0.5411150
   0.5257516   0.5309155   0.5346172   0.5427701   0.5411295   0.5210520
 TTTTTTTTTTTTTTTTTTTTTTTTTTTTTT MOQGAD      TELAPSE      169.14 TCPU      163.68
 TTTTTTTTTTTTTTTTTTTTTTTTTTTTTT SHELLXN     TELAPSE      187.23 TCPU      181.39
 +++ ENERGIES IN A.U. +++
 ::: EXT EL-POLE                                  -7.1536418571479E+02
 ::: EXT EL-SPHEROPOLE                             8.5042806435523E+00
 ::: BIELET ZONE E-E                               8.6542495779539E+02
 ::: TOTAL E-E                                     1.5856505272415E+02
 ::: TOTAL E-N + N-E                              -1.2004239477469E+03
 ::: TOTAL N-N                                    -1.2922114571182E+02
 ::: KINETIC ENERGY                                6.0647231906526E+02
 ::: PSEUDO TOTAL   ENERGY                        -5.6460772166929E+02
 ::: VIRIAL COEFFICIENT                            1.0357487071248E+00
 TTTTTTTTTTTTTTTTTTTTTTTTTTTTTT MONMO3      TELAPSE      188.76 TCPU      182.91
 NUMERICALLY INTEGRATED DENSITY     80.0000066228
 TTTTTTTTTTTTTTTTTTTTTTTTTTTTTT NUMDFT      TELAPSE      191.12 TCPU      185.27
 CYC   7 ETOT(AU) -6.103806773260E+02 DETOT -1.76E-07 tst  1.12E-09 PX  3.86E-04

 == SCF ENDED - CONVERGENCE ON ENERGY      E(AU) -6.1038067732596E+02 CYCLES   7


 ENERGY EXPRESSION=HARTREE+FOCK EXCH*0.00000+(HSE-3c     EXCH)*1.00000+PBEh-3c    CORR


 TOTAL ENERGY(DFT)(AU)(  7) -6.1038067732596E+02 DE-1.8E-07 tester 1.1E-09
 TTTTTTTTTTTTTTTTTTTTTTTTTTTTTT EDFT        TELAPSE      191.12 TCPU      185.27
 
 INFORMATION **** DFTD3 ENERGY **** CALCULATE DFTD3 ENERGY

           DFT-D V3(BJ)
 DF                                         hse3c     
 parameters
 s6       :    1.0000
 s8       :    0.0000
 a1       :    0.4411
 a2       :    4.5182
 k1 k3    :   16.0000   -4.0000
 Cutoff   :   50.2022
 CN-Cutoff:   21.1671
 
 Edisp /kcal,au:   -16.9882 -0.02707240

 E6    /kcal :   -18.3891
 E8    /kcal :     0.0000
 E6(ABC) "   :   1.400875
 
 INFORMATION **** DFTD3 ENERGY **** NORMAL TERMINATION OF DFTD3 MODULE

 GCP ENERGY CALCULATION
  level           hse3c               basis:hse3c
  Nbf            152
  Atoms           24

  Parameters: 
  sigma     1.0000
  eta       1.4086
  alpha     0.2908
  beta      1.9526

  dmp_scal      4.0000
  dmp_exp       6.0000
 cutoffs: 
   distance [bohr] 60.0
   noise    [a.u.] 2.2E-16
 SR-damping   T
 ** gCP correction **
  Egcp:        0.1071205837 / (a.u.) ||      67.2192 / (kcal/mol)
 INFORMATION **** GCP **** NORMAL TERMINATION OF GCP MODULE

 *******************************************************************************

 DFT-D3-GCP DISPERSION AND COUNTERPOISE CORRECTION

 D3 DISPERSION ENERGY (AU)      -2.7072402115487E-02
 GCP ENERGY (AU)                 1.0712058365517E-01
 TOTAL ENERGY + DISP + GCP (AU) -6.1030062914442E+02

 *******************************************************************************

 EIGENVECTORS IN FORTRAN UNIT 10
 TTTTTTTTTTTTTTTTTTTTTTTTTTTTTT END         TELAPSE      192.20 TCPU      186.25
 EEEEEEEEEE TERMINATION  DATE 25 03 2019 TIME 22:21:06.4
NODE    0 CPU TIME =       186.250
NODE    1 CPU TIME =       187.125
NODE    2 CPU TIME =       187.400
NODE    3 CPU TIME =       188.352
NODE    4 CPU TIME =       181.811
NODE    5 CPU TIME =       188.282
NODE    6 CPU TIME =       187.646
NODE    7 CPU TIME =       186.969
    TOTAL CPU TIME =      1493.834
