 PROCESS            2  OF            8  WORKING
 PROCESS            6  OF            8  WORKING
 PROCESS            0  OF            8  WORKING

         
 *******************************************************************************
 *                                                                             *
 *                               CRYSTAL17                                     *
 *                      public : 1.0.1 - Feb 1st, 2017                         *
 *                       HTTP://WWW.CRYSTAL.UNITO.IT                           *
 *                                                                             *
 *                              MAIN AUTHORS                                   *
 *                                                                             *
 *  R. DOVESI(1,11), V.R. SAUNDERS(2), C. ROETTI(1,11), R. ORLANDO(1,11),      *
 *  C.M. ZICOVICH-WILSON(1,3), F. PASCALE(4), B. CIVALLERI(1,11),              *
 *  K. DOLL(5), N.M. HARRISON(2,6), I.J. BUSH(7), Ph. D'ARCO(8),               *
 *  M. LLUNELL(9), M. CAUSA'(10), Y. NOEL(8), L. MASCHIO(1,11), A. ERBA(1,11)  *
 *  M. RE'RAT(14), S. CASASSA(1,11)                                            *
 *                                                                             *
 *        CONTRIBUTIONS TO THE CODE HAVE ALSO BEEN GIVEN BY                    *
 *                                                                             *
 *  M. FERRABONE(1,11), M. DE LA PIERRE(1,11), M. FERRERO(1,11),               *
 *  J. BAIMA(1,11), E. ALBANESE(1,11), M.F. PEINTINGER(12), R. BAST(13),       *
 *  B. KIRTMAN(15), V. LACIVITA(1,11), R. DEMICHELIS(1,16)                     *
 *  G. BRANDEBURG(17), S. SALUSTRO(1,11), G. SANSONE(1,11)                     *
 *  M.T. RUGGIERO(18)                                                          *
 *                                                                             *
 * (1) THEORETICAL CHEMISTRY GROUP - UNIVERSITA' DI TORINO - TORINO (ITALY)    *

 * (2) COMPUTATIONAL SCIENCE & ENGINEERING DEPARTMENT - STFC DARESBURY (UK)    *
 * (3) UNIVERSIDAD AUTONOMA DEL ESTADO DE MORELOS - CUERNAVACA (MEXICO)        *
 * (4) UNIVERSITE' DE LORRAINE - NANCY (FRANCE)                                *
 * (5) UNIVERSITAET STUTTGART- STUTTGART (GERMANY)                             *
 * (6) IMPERIAL COLLEGE - LONDON (UK)                                          *
 * (7) OXFORD E-RESEARCH CENTRE - OXFORD (UK)                                  *
 * (8) UPMC - SORBONNE UNIVERSITES - PARIS (FRANCE)                            *
 * (9) UNIVERSIDAD DE BARCELONA - BARCELONA (SPAIN)                            *
 *(10) UNIVERSITA' DI NAPOLI "FEDERICO II" - NAPOLI (ITALY)                    *
 *(11) NIS - NANOSTRUCTURED INTERFACES AND SURFACES - TORINO (ITALY)           *
 *(12) MPI FUER CHEMISCHE ENERGIEKONVERSION - MUELHEIM AN DER RUHR (GERMANY)   *
 *(13) UNIVERSITY OF TROMSO - TROMSO (NORWAY)                                  *
 *(14) UNIVERSITE' DE PAU ET DES PAYS DE L'ADOUR - PAU (FRANCE)                *
 *(15) UNIVERSITY OF CALIFORNIA SANTA BARBARA - SANTA BARBARA (USA)            *
 *(16) CURTIN UNIVERSITY - PERTH (AUSTRALIA)                                   *
 *(17) UNIVERSITY COLLEGE LONDON - LONDON (UK)                                 *
 *(18) CAMBRIDGE UNIVERSITY - CAMBRIDGE (UK)                                   *
 *                                                                             *
 *******************************************************************************
 PROCESS            7  OF            8  WORKING
 EEEEEEEEEE STARTING  DATE 25 03 2019 TIME 17:50:57.6
 PROCESS            3  OF            8  WORKING
 !drive by JGB                                                                   
 PROCESS            4  OF            8  WORKING
 PROCESS            5  OF            8  WORKING

 CRYSTAL CALCULATION
 (INPUT ACCORDING TO THE INTERNATIONAL TABLES FOR X-RAY CRYSTALLOGRAPHY)
 CRYSTAL FAMILY                       :  TRICLINIC   
 CRYSTAL CLASS  (GROTH - 1921)        :  TRICLINIC PINAKOIDAL                 

 SPACE GROUP (CENTROSYMMETRIC)        :  P -1            
 PROCESS            1  OF            8  WORKING

 LATTICE PARAMETERS  (ANGSTROMS AND DEGREES) - CONVENTIONAL CELL
        A           B           C        ALPHA        BETA       GAMMA
     8.26722    10.32225    14.56373    94.14195    71.67423    67.24666


 NUMBER OF IRREDUCIBLE ATOMS IN THE CONVENTIONAL CELL:   60

 INPUT COORDINATES

 ATOM AT. N.              COORDINATES
   1   8     5.155509795266E-02  6.314357694430E-01  5.178643076183E-01
   2   8     6.325778733702E-01  3.285441275075E-01  3.466614645181E-01
   3   8     5.751479706723E-01  6.083078261618E-01  9.884717763510E-01
   4   8     8.485822257878E-01  3.684637884089E-01  2.932893093753E-02
   5   8     4.937437061959E-01  7.046429492966E-01  2.466713554311E-01
   6   8     2.473854127941E-01  3.881483498841E-01  3.235010563498E-01
   7   8     2.534380172979E-01  1.869878252168E-01  1.841972196433E-01
   8   8     7.653502774701E-01  5.896942793936E-02  6.089733049342E-01
   9   8     7.845601613308E-01  1.941482191486E-01  1.508780932122E-01
  10   8     1.470021441761E-01  3.840998354197E-03  1.120925882866E-01
  11   8     4.231196207046E-01  9.486335932068E-02  3.696434200124E-01
  12   8     6.243329373756E-01  5.361016575217E-02  7.820353146332E-02
  13   8     8.604891149948E-02  7.722614582977E-01  1.588888270926E-01
  14   8     2.285461481969E-01  2.778706703290E-01  5.560532425904E-01
  15   8     3.185493645060E-01  2.179760385111E-01  9.047280343698E-01
  16   8     9.884492104797E-01  5.580718518048E-01  8.509109851814E-01
  17   8     2.658529549526E-01  4.565230823878E-01  6.784175852376E-01
  18   8     3.315313279186E-01  5.428039082075E-01  1.951162443822E-01
  19   8     2.103485678563E-01  8.261432910515E-02  6.672203785691E-01
  20   8     8.745795916219E-01  1.051107689254E-01  4.242831235350E-01
  21   1     7.479753309672E-02  7.088305604520E-01  5.430440238607E-01
  22   1     9.724296782693E-01  6.119331504540E-01  5.748428917204E-01
  23   1     6.845985063393E-01  2.778983350102E-01  2.769163972082E-01
  24   1     6.981080602621E-01  2.598631136784E-01  3.793393175203E-01
  25   1     6.007095827149E-01  6.856462069558E-01  1.236702358475E-02
  26   1     6.445886497982E-01  5.271970720459E-01  1.218262360011E-02
  27   1     8.102256427860E-01  3.070588721802E-01  7.200581099170E-02
  28   1     9.109206588728E-01  4.058447083834E-01  6.384582087691E-02
  29   1     5.781368434812E-01  6.477722267724E-01  2.790253058205E-01
  30   1     4.442077450464E-01  6.412174738463E-01  2.239300143113E-01
  31   1     2.750605971685E-01  2.959788040766E-01  2.843157699956E-01
  32   1     3.395432179235E-01  3.684488577471E-01  3.545824528554E-01
  33   1     1.795089384225E-01  2.686992826401E-01  1.621729687156E-01
  34   1     3.858645695314E-01  1.474979070049E-01  1.380711464935E-01
  35   1     6.836980818307E-01  1.464038916537E-01  6.619294614223E-01
  36   1     6.936292776247E-01  9.987299379170E-01  6.173001199546E-01
  37   1     7.195168331545E-01  1.411549328041E-01  1.310590767885E-01
  38   1     9.150748644869E-01  1.223968811361E-01  1.354083940474E-01
  39   1     1.449074638389E-01  9.186468115731E-01  1.369237731616E-01
  40   1     1.872534999409E-01  5.808433562425E-02  1.516101254304E-01
  41   1     3.792120233881E-01  1.575939436617E-01  4.343029589978E-01
  42   1     5.572025460325E-01  3.155276142678E-02  3.516136346427E-01
  43   1     6.444716499925E-01  9.570340599014E-01  9.011072928116E-02
  44   1     6.970702859719E-01  3.872633444838E-02  7.058699667155E-03
  45   1     1.754583515522E-01  6.925306770275E-01  1.767759846882E-01
  46   1     9.601912549823E-02  7.316904904170E-01  9.360592362742E-02
  47   1     1.138880726323E-01  3.164758285806E-01  5.402478662499E-01
  48   1     2.162501056910E-01  2.083059819592E-01  5.973991185474E-01
  49   1     3.877777410651E-01  2.423550553257E-01  8.444296503759E-01
  50   1     1.860252315793E-01  2.752087077582E-01  9.204581783019E-01
  51   1     9.166796560044E-01  5.026749159130E-01  8.580619365397E-01
  52   1     8.825181519711E-02  5.192132645192E-01  7.828692003180E-01
  53   1     3.056039652727E-01  5.316299799459E-01  6.563007728405E-01
  54   1     2.547211849329E-01  4.009044750663E-01  6.241066406176E-01
  55   1     3.890671088894E-01  4.745361134348E-01  1.308857115782E-01
  56   1     2.940230989283E-01  4.909765227301E-01  2.466445061455E-01
  57   1     1.156294119618E-01  1.302420895270E-01  7.341784087834E-01
  58   1     1.725352000007E-01  1.540685033753E-02  6.378759724811E-01
  59   1     1.258157938186E-02  4.633458604527E-02  4.036867454330E-01
  60   1     8.214300033991E-01  9.729744564615E-02  4.935584276333E-01

 *******************************************************************************

 << INFORMATION >>: FROM NOW ON, ALL COORDINATES REFER TO THE PRIMITIVE CELL

 *******************************************************************************

 LATTICE PARAMETERS  (ANGSTROMS AND DEGREES) - PRIMITIVE CELL
       A          B          C        ALPHA      BETA     GAMMA        VOLUME
    8.26722   10.32225   14.56373    94.14195  71.67423  67.24666   1060.966157

 COORDINATES OF THE EQUIVALENT ATOMS (FRACTIONAL UNITS)

 N. ATOM EQUIV AT. N.          X                  Y                  Z

   1   1   1    8 O     5.15550979527E-02 -3.68564230557E-01 -4.82135692382E-01
   2   1   2    8 O    -5.15550979527E-02  3.68564230557E-01  4.82135692382E-01

   3   2   1    8 O    -3.67422126630E-01  3.28544127508E-01  3.46661464518E-01
   4   2   2    8 O     3.67422126630E-01 -3.28544127508E-01 -3.46661464518E-01

   5   3   1    8 O    -4.24852029328E-01 -3.91692173838E-01 -1.15282236490E-02
   6   3   2    8 O     4.24852029328E-01  3.91692173838E-01  1.15282236490E-02

   7   4   1    8 O    -1.51417774212E-01  3.68463788409E-01  2.93289309375E-02
   8   4   2    8 O     1.51417774212E-01 -3.68463788409E-01 -2.93289309375E-02

   9   5   1    8 O     4.93743706196E-01 -2.95357050703E-01  2.46671355431E-01
  10   5   2    8 O    -4.93743706196E-01  2.95357050703E-01 -2.46671355431E-01

  11   6   1    8 O     2.47385412794E-01  3.88148349884E-01  3.23501056350E-01
  12   6   2    8 O    -2.47385412794E-01 -3.88148349884E-01 -3.23501056350E-01

  13   7   1    8 O     2.53438017298E-01  1.86987825217E-01  1.84197219643E-01
  14   7   2    8 O    -2.53438017298E-01 -1.86987825217E-01 -1.84197219643E-01

  15   8   1    8 O    -2.34649722530E-01  5.89694279394E-02 -3.91026695066E-01
  16   8   2    8 O     2.34649722530E-01 -5.89694279394E-02  3.91026695066E-01

  17   9   1    8 O    -2.15439838669E-01  1.94148219149E-01  1.50878093212E-01
  18   9   2    8 O     2.15439838669E-01 -1.94148219149E-01 -1.50878093212E-01

  19  10   1    8 O     1.47002144176E-01  3.84099835420E-03  1.12092588287E-01
  20  10   2    8 O    -1.47002144176E-01 -3.84099835420E-03 -1.12092588287E-01

  21  11   1    8 O     4.23119620705E-01  9.48633593207E-02  3.69643420012E-01
  22  11   2    8 O    -4.23119620705E-01 -9.48633593207E-02 -3.69643420012E-01

  23  12   1    8 O    -3.75667062624E-01  5.36101657522E-02  7.82035314633E-02
  24  12   2    8 O     3.75667062624E-01 -5.36101657522E-02 -7.82035314633E-02

  25  13   1    8 O     8.60489114995E-02 -2.27738541702E-01  1.58888827093E-01
  26  13   2    8 O    -8.60489114995E-02  2.27738541702E-01 -1.58888827093E-01

  27  14   1    8 O     2.28546148197E-01  2.77870670329E-01 -4.43946757410E-01
  28  14   2    8 O    -2.28546148197E-01 -2.77870670329E-01  4.43946757410E-01

  29  15   1    8 O     3.18549364506E-01  2.17976038511E-01 -9.52719656302E-02
  30  15   2    8 O    -3.18549364506E-01 -2.17976038511E-01  9.52719656302E-02

  31  16   1    8 O    -1.15507895203E-02 -4.41928148195E-01 -1.49089014819E-01
  32  16   2    8 O     1.15507895203E-02  4.41928148195E-01  1.49089014819E-01

  33  17   1    8 O     2.65852954953E-01  4.56523082388E-01 -3.21582414762E-01
  34  17   2    8 O    -2.65852954953E-01 -4.56523082388E-01  3.21582414762E-01

  35  18   1    8 O     3.31531327919E-01 -4.57196091792E-01  1.95116244382E-01
  36  18   2    8 O    -3.31531327919E-01  4.57196091792E-01 -1.95116244382E-01

  37  19   1    8 O     2.10348567856E-01  8.26143291052E-02 -3.32779621431E-01
  38  19   2    8 O    -2.10348567856E-01 -8.26143291052E-02  3.32779621431E-01

  39  20   1    8 O    -1.25420408378E-01  1.05110768925E-01  4.24283123535E-01
  40  20   2    8 O     1.25420408378E-01 -1.05110768925E-01 -4.24283123535E-01

  41  21   1    1 H     7.47975330967E-02 -2.91169439548E-01 -4.56955976139E-01
  42  21   2    1 H    -7.47975330967E-02  2.91169439548E-01  4.56955976139E-01

  43  22   1    1 H    -2.75703217307E-02 -3.88066849546E-01 -4.25157108280E-01
  44  22   2    1 H     2.75703217307E-02  3.88066849546E-01  4.25157108280E-01

  45  23   1    1 H    -3.15401493661E-01  2.77898335010E-01  2.76916397208E-01
  46  23   2    1 H     3.15401493661E-01 -2.77898335010E-01 -2.76916397208E-01

  47  24   1    1 H    -3.01891939738E-01  2.59863113678E-01  3.79339317520E-01
  48  24   2    1 H     3.01891939738E-01 -2.59863113678E-01 -3.79339317520E-01

  49  25   1    1 H    -3.99290417285E-01 -3.14353793044E-01  1.23670235847E-02
  50  25   2    1 H     3.99290417285E-01  3.14353793044E-01 -1.23670235847E-02

  51  26   1    1 H    -3.55411350202E-01 -4.72802927954E-01  1.21826236001E-02
  52  26   2    1 H     3.55411350202E-01  4.72802927954E-01 -1.21826236001E-02

  53  27   1    1 H    -1.89774357214E-01  3.07058872180E-01  7.20058109917E-02
  54  27   2    1 H     1.89774357214E-01 -3.07058872180E-01 -7.20058109917E-02

  55  28   1    1 H    -8.90793411272E-02  4.05844708383E-01  6.38458208769E-02
  56  28   2    1 H     8.90793411272E-02 -4.05844708383E-01 -6.38458208769E-02

  57  29   1    1 H    -4.21863156519E-01 -3.52227773228E-01  2.79025305821E-01
  58  29   2    1 H     4.21863156519E-01  3.52227773228E-01 -2.79025305821E-01

  59  30   1    1 H     4.44207745046E-01 -3.58782526154E-01  2.23930014311E-01
  60  30   2    1 H    -4.44207745046E-01  3.58782526154E-01 -2.23930014311E-01

  61  31   1    1 H     2.75060597169E-01  2.95978804077E-01  2.84315769996E-01
  62  31   2    1 H    -2.75060597169E-01 -2.95978804077E-01 -2.84315769996E-01

  63  32   1    1 H     3.39543217924E-01  3.68448857747E-01  3.54582452855E-01
  64  32   2    1 H    -3.39543217924E-01 -3.68448857747E-01 -3.54582452855E-01

  65  33   1    1 H     1.79508938422E-01  2.68699282640E-01  1.62172968716E-01
  66  33   2    1 H    -1.79508938422E-01 -2.68699282640E-01 -1.62172968716E-01

  67  34   1    1 H     3.85864569531E-01  1.47497907005E-01  1.38071146493E-01
  68  34   2    1 H    -3.85864569531E-01 -1.47497907005E-01 -1.38071146493E-01

  69  35   1    1 H    -3.16301918169E-01  1.46403891654E-01 -3.38070538578E-01
  70  35   2    1 H     3.16301918169E-01 -1.46403891654E-01  3.38070538578E-01

  71  36   1    1 H    -3.06370722375E-01 -1.27006208298E-03 -3.82699880045E-01
  72  36   2    1 H     3.06370722375E-01  1.27006208298E-03  3.82699880045E-01

  73  37   1    1 H    -2.80483166846E-01  1.41154932804E-01  1.31059076789E-01
  74  37   2    1 H     2.80483166846E-01 -1.41154932804E-01 -1.31059076789E-01

  75  38   1    1 H    -8.49251355131E-02  1.22396881136E-01  1.35408394047E-01
  76  38   2    1 H     8.49251355131E-02 -1.22396881136E-01 -1.35408394047E-01

  77  39   1    1 H     1.44907463839E-01 -8.13531884269E-02  1.36923773162E-01
  78  39   2    1 H    -1.44907463839E-01  8.13531884269E-02 -1.36923773162E-01

  79  40   1    1 H     1.87253499941E-01  5.80843356242E-02  1.51610125430E-01
  80  40   2    1 H    -1.87253499941E-01 -5.80843356242E-02 -1.51610125430E-01

  81  41   1    1 H     3.79212023388E-01  1.57593943662E-01  4.34302958998E-01
  82  41   2    1 H    -3.79212023388E-01 -1.57593943662E-01 -4.34302958998E-01

  83  42   1    1 H    -4.42797453968E-01  3.15527614268E-02  3.51613634643E-01
  84  42   2    1 H     4.42797453968E-01 -3.15527614268E-02 -3.51613634643E-01

  85  43   1    1 H    -3.55528350008E-01 -4.29659400986E-02  9.01107292812E-02
  86  43   2    1 H     3.55528350008E-01  4.29659400986E-02 -9.01107292812E-02

  87  44   1    1 H    -3.02929714028E-01  3.87263344484E-02  7.05869966716E-03
  88  44   2    1 H     3.02929714028E-01 -3.87263344484E-02 -7.05869966716E-03

  89  45   1    1 H     1.75458351552E-01 -3.07469322972E-01  1.76775984688E-01
  90  45   2    1 H    -1.75458351552E-01  3.07469322972E-01 -1.76775984688E-01

  91  46   1    1 H     9.60191254982E-02 -2.68309509583E-01  9.36059236274E-02
  92  46   2    1 H    -9.60191254982E-02  2.68309509583E-01 -9.36059236274E-02

  93  47   1    1 H     1.13888072632E-01  3.16475828581E-01 -4.59752133750E-01
  94  47   2    1 H    -1.13888072632E-01 -3.16475828581E-01  4.59752133750E-01

  95  48   1    1 H     2.16250105691E-01  2.08305981959E-01 -4.02600881453E-01
  96  48   2    1 H    -2.16250105691E-01 -2.08305981959E-01  4.02600881453E-01

  97  49   1    1 H     3.87777741065E-01  2.42355055326E-01 -1.55570349624E-01
  98  49   2    1 H    -3.87777741065E-01 -2.42355055326E-01  1.55570349624E-01

  99  50   1    1 H     1.86025231579E-01  2.75208707758E-01 -7.95418216981E-02
 100  50   2    1 H    -1.86025231579E-01 -2.75208707758E-01  7.95418216981E-02

 101  51   1    1 H    -8.33203439956E-02 -4.97325084087E-01 -1.41938063460E-01
 102  51   2    1 H     8.33203439956E-02  4.97325084087E-01  1.41938063460E-01

 103  52   1    1 H     8.82518151971E-02 -4.80786735481E-01 -2.17130799682E-01
 104  52   2    1 H    -8.82518151971E-02  4.80786735481E-01  2.17130799682E-01

 105  53   1    1 H     3.05603965273E-01 -4.68370020054E-01 -3.43699227159E-01
 106  53   2    1 H    -3.05603965273E-01  4.68370020054E-01  3.43699227159E-01

 107  54   1    1 H     2.54721184933E-01  4.00904475066E-01 -3.75893359382E-01
 108  54   2    1 H    -2.54721184933E-01 -4.00904475066E-01  3.75893359382E-01

 109  55   1    1 H     3.89067108889E-01  4.74536113435E-01  1.30885711578E-01
 110  55   2    1 H    -3.89067108889E-01 -4.74536113435E-01 -1.30885711578E-01

 111  56   1    1 H     2.94023098928E-01  4.90976522730E-01  2.46644506145E-01
 112  56   2    1 H    -2.94023098928E-01 -4.90976522730E-01 -2.46644506145E-01

 113  57   1    1 H     1.15629411962E-01  1.30242089527E-01 -2.65821591217E-01
 114  57   2    1 H    -1.15629411962E-01 -1.30242089527E-01  2.65821591217E-01

 115  58   1    1 H     1.72535200001E-01  1.54068503375E-02 -3.62124027519E-01
 116  58   2    1 H    -1.72535200001E-01 -1.54068503375E-02  3.62124027519E-01

 117  59   1    1 H     1.25815793819E-02  4.63345860453E-02  4.03686745433E-01
 118  59   2    1 H    -1.25815793819E-02 -4.63345860453E-02 -4.03686745433E-01

 119  60   1    1 H    -1.78569996601E-01  9.72974456462E-02  4.93558427633E-01
 120  60   2    1 H     1.78569996601E-01 -9.72974456462E-02 -4.93558427633E-01

 NUMBER OF SYMMETRY OPERATORS         :    2
 *******************************************************************************
 * GEOMETRY EDITING - INPUT COORDINATES ARE GIVEN IN ANGSTROM         
 *******************************************************************************

 GEOMETRY NOW FULLY CONSISTENT WITH THE GROUP

 GCALCO - MAX INDICES DIRECT LATTICE VECTOR    20    15    10
 NO.OF VECTORS CREATED 6999 STARS 3500 RMAX   229.06781 BOHR

 GEOMETRY FOR WAVE FUNCTION - DIMENSIONALITY OF THE SYSTEM    3
 (NON PERIODIC DIRECTION: LATTICE PARAMETER FORMALLY SET TO 500)
 *******************************************************************************
 LATTICE PARAMETERS (ANGSTROMS AND DEGREES) - BOHR = 0.5291772083 ANGSTROM
 PRIMITIVE CELL - CENTRING CODE 1/0 VOLUME=  1060.966157 - DENSITY  1.128 g/cm^3
         A              B              C           ALPHA      BETA       GAMMA 
     8.26722085    10.32224570    14.56372790    94.141951  71.674234  67.246663
 *******************************************************************************
 ATOMS IN THE ASYMMETRIC UNIT   60 - ATOMS IN THE UNIT CELL:  120
     ATOM                 X/A                 Y/B                 Z/C    
 *******************************************************************************
      1 T   8 O     5.155509795266E-02 -3.685642305570E-01 -4.821356923817E-01
      2 F   8 O    -5.155509795266E-02  3.685642305570E-01  4.821356923817E-01
      3 T   8 O    -3.674221266298E-01  3.285441275075E-01  3.466614645181E-01
      4 F   8 O     3.674221266298E-01 -3.285441275075E-01 -3.466614645181E-01
      5 T   8 O    -4.248520293277E-01 -3.916921738382E-01 -1.152822364897E-02
      6 F   8 O     4.248520293277E-01  3.916921738382E-01  1.152822364897E-02
      7 T   8 O    -1.514177742122E-01  3.684637884089E-01  2.932893093753E-02
      8 F   8 O     1.514177742122E-01 -3.684637884089E-01 -2.932893093753E-02
      9 T   8 O     4.937437061959E-01 -2.953570507034E-01  2.466713554311E-01
     10 F   8 O    -4.937437061959E-01  2.953570507034E-01 -2.466713554311E-01
     11 T   8 O     2.473854127941E-01  3.881483498841E-01  3.235010563498E-01
     12 F   8 O    -2.473854127941E-01 -3.881483498841E-01 -3.235010563498E-01
     13 T   8 O     2.534380172979E-01  1.869878252168E-01  1.841972196433E-01
     14 F   8 O    -2.534380172979E-01 -1.869878252168E-01 -1.841972196433E-01
     15 T   8 O    -2.346497225299E-01  5.896942793936E-02 -3.910266950658E-01
     16 F   8 O     2.346497225299E-01 -5.896942793936E-02  3.910266950658E-01
     17 T   8 O    -2.154398386692E-01  1.941482191486E-01  1.508780932122E-01
     18 F   8 O     2.154398386692E-01 -1.941482191486E-01 -1.508780932122E-01
     19 T   8 O     1.470021441761E-01  3.840998354197E-03  1.120925882866E-01
     20 F   8 O    -1.470021441761E-01 -3.840998354197E-03 -1.120925882866E-01
     21 T   8 O     4.231196207046E-01  9.486335932068E-02  3.696434200124E-01
     22 F   8 O    -4.231196207046E-01 -9.486335932068E-02 -3.696434200124E-01
     23 T   8 O    -3.756670626244E-01  5.361016575217E-02  7.820353146332E-02
     24 F   8 O     3.756670626244E-01 -5.361016575217E-02 -7.820353146332E-02
     25 T   8 O     8.604891149948E-02 -2.277385417023E-01  1.588888270926E-01
     26 F   8 O    -8.604891149948E-02  2.277385417023E-01 -1.588888270926E-01
     27 T   8 O     2.285461481969E-01  2.778706703290E-01 -4.439467574096E-01
     28 F   8 O    -2.285461481969E-01 -2.778706703290E-01  4.439467574096E-01
     29 T   8 O     3.185493645060E-01  2.179760385111E-01 -9.527196563016E-02
     30 F   8 O    -3.185493645060E-01 -2.179760385111E-01  9.527196563016E-02
     31 T   8 O    -1.155078952032E-02 -4.419281481952E-01 -1.490890148186E-01
     32 F   8 O     1.155078952032E-02  4.419281481952E-01  1.490890148186E-01
     33 T   8 O     2.658529549526E-01  4.565230823878E-01 -3.215824147624E-01
     34 F   8 O    -2.658529549526E-01 -4.565230823878E-01  3.215824147624E-01
     35 T   8 O     3.315313279186E-01 -4.571960917925E-01  1.951162443822E-01
     36 F   8 O    -3.315313279186E-01  4.571960917925E-01 -1.951162443822E-01
     37 T   8 O     2.103485678563E-01  8.261432910515E-02 -3.327796214309E-01
     38 F   8 O    -2.103485678563E-01 -8.261432910515E-02  3.327796214309E-01
     39 T   8 O    -1.254204083781E-01  1.051107689254E-01  4.242831235350E-01
     40 F   8 O     1.254204083781E-01 -1.051107689254E-01 -4.242831235350E-01
     41 T   1 H     7.479753309672E-02 -2.911694395480E-01 -4.569559761393E-01
     42 F   1 H    -7.479753309672E-02  2.911694395480E-01  4.569559761393E-01
     43 T   1 H    -2.757032173066E-02 -3.880668495460E-01 -4.251571082796E-01
     44 F   1 H     2.757032173066E-02  3.880668495460E-01  4.251571082796E-01
     45 T   1 H    -3.154014936607E-01  2.778983350102E-01  2.769163972082E-01
     46 F   1 H     3.154014936607E-01 -2.778983350102E-01 -2.769163972082E-01
     47 T   1 H    -3.018919397379E-01  2.598631136784E-01  3.793393175203E-01
     48 F   1 H     3.018919397379E-01 -2.598631136784E-01 -3.793393175203E-01
     49 T   1 H    -3.992904172851E-01 -3.143537930442E-01  1.236702358475E-02
     50 F   1 H     3.992904172851E-01  3.143537930442E-01 -1.236702358475E-02
     51 T   1 H    -3.554113502018E-01 -4.728029279541E-01  1.218262360011E-02
     52 F   1 H     3.554113502018E-01  4.728029279541E-01 -1.218262360011E-02
     53 T   1 H    -1.897743572140E-01  3.070588721802E-01  7.200581099170E-02
     54 F   1 H     1.897743572140E-01 -3.070588721802E-01 -7.200581099170E-02
     55 T   1 H    -8.907934112721E-02  4.058447083834E-01  6.384582087691E-02
     56 F   1 H     8.907934112721E-02 -4.058447083834E-01 -6.384582087691E-02
     57 T   1 H    -4.218631565188E-01 -3.522277732276E-01  2.790253058205E-01
     58 F   1 H     4.218631565188E-01  3.522277732276E-01 -2.790253058205E-01
     59 T   1 H     4.442077450464E-01 -3.587825261537E-01  2.239300143113E-01
     60 F   1 H    -4.442077450464E-01  3.587825261537E-01 -2.239300143113E-01
     61 T   1 H     2.750605971685E-01  2.959788040766E-01  2.843157699956E-01
     62 F   1 H    -2.750605971685E-01 -2.959788040766E-01 -2.843157699956E-01
     63 T   1 H     3.395432179235E-01  3.684488577471E-01  3.545824528554E-01
     64 F   1 H    -3.395432179235E-01 -3.684488577471E-01 -3.545824528554E-01
     65 T   1 H     1.795089384225E-01  2.686992826401E-01  1.621729687156E-01
     66 F   1 H    -1.795089384225E-01 -2.686992826401E-01 -1.621729687156E-01
     67 T   1 H     3.858645695314E-01  1.474979070049E-01  1.380711464935E-01
     68 F   1 H    -3.858645695314E-01 -1.474979070049E-01 -1.380711464935E-01
     69 T   1 H    -3.163019181693E-01  1.464038916537E-01 -3.380705385777E-01
     70 F   1 H     3.163019181693E-01 -1.464038916537E-01  3.380705385777E-01
     71 T   1 H    -3.063707223753E-01 -1.270062082982E-03 -3.826998800454E-01
     72 F   1 H     3.063707223753E-01  1.270062082982E-03  3.826998800454E-01
     73 T   1 H    -2.804831668455E-01  1.411549328041E-01  1.310590767885E-01
     74 F   1 H     2.804831668455E-01 -1.411549328041E-01 -1.310590767885E-01
     75 T   1 H    -8.492513551314E-02  1.223968811361E-01  1.354083940474E-01
     76 F   1 H     8.492513551314E-02 -1.223968811361E-01 -1.354083940474E-01
     77 T   1 H     1.449074638389E-01 -8.135318842686E-02  1.369237731616E-01
     78 F   1 H    -1.449074638389E-01  8.135318842686E-02 -1.369237731616E-01
     79 T   1 H     1.872534999409E-01  5.808433562425E-02  1.516101254304E-01
     80 F   1 H    -1.872534999409E-01 -5.808433562425E-02 -1.516101254304E-01
     81 T   1 H     3.792120233881E-01  1.575939436617E-01  4.343029589978E-01
     82 F   1 H    -3.792120233881E-01 -1.575939436617E-01 -4.343029589978E-01
     83 T   1 H    -4.427974539675E-01  3.155276142678E-02  3.516136346427E-01
     84 F   1 H     4.427974539675E-01 -3.155276142678E-02 -3.516136346427E-01
     85 T   1 H    -3.555283500075E-01 -4.296594009864E-02  9.011072928116E-02
     86 F   1 H     3.555283500075E-01  4.296594009864E-02 -9.011072928116E-02
     87 T   1 H    -3.029297140281E-01  3.872633444838E-02  7.058699667155E-03
     88 F   1 H     3.029297140281E-01 -3.872633444838E-02 -7.058699667155E-03
     89 T   1 H     1.754583515522E-01 -3.074693229725E-01  1.767759846882E-01
     90 F   1 H    -1.754583515522E-01  3.074693229725E-01 -1.767759846882E-01
     91 T   1 H     9.601912549823E-02 -2.683095095830E-01  9.360592362742E-02
     92 F   1 H    -9.601912549823E-02  2.683095095830E-01 -9.360592362742E-02
     93 T   1 H     1.138880726323E-01  3.164758285806E-01 -4.597521337501E-01
     94 F   1 H    -1.138880726323E-01 -3.164758285806E-01  4.597521337501E-01
     95 T   1 H     2.162501056910E-01  2.083059819592E-01 -4.026008814526E-01
     96 F   1 H    -2.162501056910E-01 -2.083059819592E-01  4.026008814526E-01
     97 T   1 H     3.877777410651E-01  2.423550553257E-01 -1.555703496241E-01
     98 F   1 H    -3.877777410651E-01 -2.423550553257E-01  1.555703496241E-01
     99 T   1 H     1.860252315793E-01  2.752087077582E-01 -7.954182169809E-02
    100 F   1 H    -1.860252315793E-01 -2.752087077582E-01  7.954182169809E-02
    101 T   1 H    -8.332034399563E-02 -4.973250840870E-01 -1.419380634603E-01
    102 F   1 H     8.332034399563E-02  4.973250840870E-01  1.419380634603E-01
    103 T   1 H     8.825181519711E-02 -4.807867354808E-01 -2.171307996820E-01
    104 F   1 H    -8.825181519711E-02  4.807867354808E-01  2.171307996820E-01
    105 T   1 H     3.056039652727E-01 -4.683700200541E-01 -3.436992271595E-01
    106 F   1 H    -3.056039652727E-01  4.683700200541E-01  3.436992271595E-01
    107 T   1 H     2.547211849329E-01  4.009044750663E-01 -3.758933593824E-01
    108 F   1 H    -2.547211849329E-01 -4.009044750663E-01  3.758933593824E-01
    109 T   1 H     3.890671088894E-01  4.745361134348E-01  1.308857115782E-01
    110 F   1 H    -3.890671088894E-01 -4.745361134348E-01 -1.308857115782E-01
    111 T   1 H     2.940230989283E-01  4.909765227301E-01  2.466445061455E-01
    112 F   1 H    -2.940230989283E-01 -4.909765227301E-01 -2.466445061455E-01
    113 T   1 H     1.156294119618E-01  1.302420895270E-01 -2.658215912166E-01
    114 F   1 H    -1.156294119618E-01 -1.302420895270E-01  2.658215912166E-01
    115 T   1 H     1.725352000007E-01  1.540685033753E-02 -3.621240275189E-01
    116 F   1 H    -1.725352000007E-01 -1.540685033753E-02  3.621240275189E-01
    117 T   1 H     1.258157938186E-02  4.633458604527E-02  4.036867454330E-01
    118 F   1 H    -1.258157938186E-02 -4.633458604527E-02 -4.036867454330E-01
    119 T   1 H    -1.785699966009E-01  9.729744564615E-02  4.935584276333E-01
    120 F   1 H     1.785699966009E-01 -9.729744564615E-02 -4.935584276333E-01

 T = ATOM BELONGING TO THE ASYMMETRIC UNIT

 ****    2 SYMMOPS - TRANSLATORS IN FRACTIONAL UNITS
 **** MATRICES AND TRANSLATORS IN THE CRYSTALLOGRAPHIC REFERENCE FRAME
   V INV                    ROTATION MATRICES                   TRANSLATORS
   1   1  1.00  0.00  0.00  0.00  1.00  0.00  0.00  0.00  1.00  0.00  0.00  0.00
   2   2 -1.00  0.00  0.00  0.00 -1.00  0.00  0.00  0.00 -1.00  0.00  0.00  0.00

 DIRECT LATTICE VECTORS CARTESIAN COMPONENTS (ANGSTROM)
          X                    Y                    Z
   0.762385288799E+01   0.319746895606E+01   0.000000000000E+00
   0.000000000000E+00   0.103222457000E+02   0.000000000000E+00
   0.540671717393E+01  -0.105190507008E+01   0.134819536963E+02


 CARTESIAN COORDINATES - PRIMITIVE CELL
 *******************************************************************************
 *      ATOM          X(ANGSTROM)         Y(ANGSTROM)         Z(ANGSTROM)
 *******************************************************************************
    1     8 O    -2.213722845747E+00 -3.132403739527E+00 -6.500131080037E+00
    2     8 O     2.213722845747E+00  3.132403739527E+00  6.500131080037E+00
    3     8 O    -9.268717474682E-01  1.851837411627E+00  4.673673812934E+00
    4     8 O     9.268717474682E-01 -1.851837411627E+00 -4.673673812934E+00
    5     8 O     4.322513672443E+00 -2.191998478852E+00 -1.554229774363E-01
    6     8 O    -4.322513672443E+00  2.191998478852E+00  1.554229774363E-01
    7     8 O    -9.958136006275E-01  3.288368871916E+00  3.954112888626E-01
    8     8 O     9.958136006275E-01 -3.288368871916E+00 -3.954112888626E-01
    9     8 O     5.097911634133E+00 -1.729492723196E+00  3.325611792133E+00
   10     8 O    -5.097911634133E+00  1.729492723196E+00 -3.325611792133E+00
   11     8 O    -3.988744177061E+00  1.259808455731E+00  4.361426262421E+00
   12     8 O     3.988744177061E+00 -1.259808455731E+00 -4.361426262421E+00
   13     8 O     2.928076430938E+00  2.546736478155E+00  2.483338386223E+00
   14     8 O    -2.928076430938E+00 -2.546736478155E+00 -2.483338386223E+00
   15     8 O    -3.903105712452E+00  2.697346837167E-01 -5.271803796905E+00
   16     8 O     3.903105712452E+00 -2.697346837167E-01  5.271803796905E+00
   17     8 O    -8.267264584859E-01  1.156473993011E+00  2.034131466477E+00
   18     8 O     8.267264584859E-01 -1.156473993011E+00 -2.034131466477E+00
   19     8 O     1.726775643577E+00  3.917717592861E-01  1.511227084981E+00
   20     8 O    -1.726775643577E+00 -3.917717592861E-01 -1.511227084981E+00
   21     8 O    -2.399493718504E+00 -1.254183988957E+00  4.983515472759E+00
   22     8 O     2.399493718504E+00  1.254183988957E+00 -4.983515472759E+00
   23     8 O    -2.441206043686E+00 -7.300691588900E-01  1.054336390078E+00
   24     8 O     2.441206043686E+00  7.300691588900E-01 -1.054336390078E+00
   25     8 O     1.515091192630E+00 -2.242770422386E+00  2.142131809726E+00
   26     8 O    -1.515091192630E+00  2.242770422386E+00 -2.142131809726E+00
   27     8 O    -6.578923456268E-01  4.066008390812E+00 -5.985269627031E+00
   28     8 O     6.578923456268E-01 -4.066008390812E+00  5.985269627031E+00
   29     8 O     1.913464919789E+00  3.368770993889E+00 -1.284452229184E+00
   30     8 O    -1.913464919789E+00 -3.368770993889E+00  1.284452229184E+00
   31     8 O    -8.941436569068E-01 -4.441796727745E+00 -2.010011194415E+00
   32     8 O     8.941436569068E-01  4.441796727745E+00  2.010011194415E+00
   33     8 O     2.881186536663E-01 -4.421571532996E+00 -4.335559225380E+00
   34     8 O    -2.881186536663E-01  4.421571532996E+00  4.335559225380E+00
   35     8 O    -4.041368466764E+00  3.260303713636E+00  2.630548172162E+00
   36     8 O     4.041368466764E+00 -3.260303713636E+00 -2.630548172162E+00
   37     8 O    -1.955787577884E-01  1.875400990040E+00 -4.486519447213E+00
   38     8 O     1.955787577884E-01 -1.875400990040E+00  4.486519447213E+00
   39     8 O     1.337792107999E+00  2.376457515221E-01  5.720165425632E+00
   40     8 O    -1.337792107999E+00 -2.376457515221E-01 -5.720165425632E+00
   41     1 H    -1.900386335208E+00 -2.285685397174E+00 -6.160659311570E+00
   42     1 H     1.900386335208E+00  2.285685397174E+00  6.160659311570E+00
   43     1 H    -2.508896315902E+00 -3.646651699101E+00 -5.731948447490E+00
   44     1 H     2.508896315902E+00  3.646651699101E+00  5.731948447490E+00
   45     1 H    -9.073659477929E-01  1.568758646708E+00  3.733374044915E+00
   46     1 H     9.073659477929E-01 -1.568758646708E+00 -3.733374044915E+00
   47     1 H    -2.505993338478E-01  1.318051850977E+00  5.114235114005E+00
   48     1 H     2.505993338478E-01 -1.318051850977E+00 -5.114235114005E+00
   49     1 H     4.646586485829E+00 -1.337095780999E+00  1.667316393310E-01
   50     1 H    -4.646586485829E+00  1.337095780999E+00 -1.667316393310E-01
   51     1 H    -2.643735848417E+00  4.292625987544E+00  1.642455672765E-01
   52     1 H     2.643735848417E+00 -4.292625987544E+00 -1.642455672765E-01
   53     1 H    -1.057496726401E+00  2.486996229503E+00  9.707790096566E-01
   54     1 H     1.057496726401E+00 -2.486996229503E+00 -9.707790096566E-01
   55     1 H    -3.339314958940E-01  3.837240625414E+00  8.607664007665E-01
   56     1 H     3.339314958940E-01 -3.837240625414E+00 -8.607664007665E-01
   57     1 H    -1.707611731221E+00  5.044061601832E+00  3.761806253176E+00
   58     1 H     1.707611731221E+00 -5.044061601832E+00 -3.761806253176E+00
   59     1 H     4.597300754074E+00 -2.518654030393E+00  3.019014084163E+00
   60     1 H    -4.597300754074E+00  2.518654030393E+00 -3.019014084163E+00
   61     1 H    -3.989616403439E+00  4.381215021275E-01  3.833132046216E+00
   62     1 H     3.989616403439E+00 -4.381215021275E-01 -3.833132046216E+00
   63     1 H    -3.118098307998E+00  1.318442500118E+00  4.780464210927E+00
   64     1 H     3.118098307998E+00 -1.318442500118E+00 -4.780464210927E+00
   65     1 H     2.245373113714E+00  3.176963704745E+00  2.186408455020E+00
   66     1 H    -2.245373113714E+00 -3.176963704745E+00 -2.186408455020E+00
   67     1 H    -3.935566536223E+00 -5.864070764302E-01  1.861468803824E+00
   68     1 H     3.935566536223E+00  5.864070764302E-01 -1.861468803824E+00
   69     1 H    -4.239291079238E+00  8.554694905706E-01 -4.557851347197E+00
   70     1 H     4.239291079238E+00 -8.554694905706E-01  4.557851347197E+00
   71     1 H     3.218977557510E+00  2.607312133486E+00 -5.159542062362E+00
   72     1 H    -3.218977557510E+00 -2.607312133486E+00  5.159542062362E+00
   73     1 H    -1.429763040316E+00  4.223379721301E-01  1.766932404746E+00
   74     1 H     1.429763040316E+00 -4.223379721301E-01 -1.766932404746E+00
   75     1 H     8.465814994550E-02  8.494284193778E-01  1.825569698641E+00
   76     1 H    -8.465814994550E-02 -8.494284193778E-01 -1.825569698641E+00
   77     1 H     1.845061302551E+00 -5.204412934968E-01  1.845999969691E+00
   78     1 H    -1.845061302551E+00  5.204412934968E-01 -1.845999969691E+00
   79     1 H     2.247306205216E+00  1.038818576994E+00  2.044000690947E+00
   80     1 H    -2.247306205216E+00 -1.038818576994E+00 -2.044000690947E+00
   81     1 H    -2.384642941220E+00 -8.150723607269E-01  5.855252383386E+00
   82     1 H     2.384642941220E+00  8.150723607269E-01 -5.855252383386E+00
   83     1 H    -1.474747171214E+00 -1.459999921914E+00  4.740438741250E+00
   84     1 H     1.474747171214E+00  1.459999921914E+00 -4.740438741250E+00
   85     1 H    -2.223292610407E+00 -1.675083785579E+00  1.214868679711E+00
   86     1 H     2.223292610407E+00  1.675083785579E+00 -1.214868679711E+00
   87     1 H    -2.271327182435E+00 -5.762906992056E-01  9.516506206887E-02
   88     1 H     2.271327182435E+00  5.762906992056E-01 -9.516506206887E-02
   89     1 H     2.293446412555E+00 -2.798702819326E+00  2.383285640189E+00
   90     1 H    -2.293446412555E+00  2.798702819326E+00 -2.383285640189E+00
   91     1 H     1.238136442090E+00 -2.561003054246E+00  1.261990728047E+00
   92     1 H    -1.238136442090E+00  2.561003054246E+00 -1.261990728047E+00
   93     1 H    -1.617483845852E+00  4.114510437900E+00 -6.198356979007E+00
   94     1 H     1.617483845852E+00 -4.114510437900E+00  6.198356979007E+00
   95     1 H    -5.280901071884E-01  3.265136434674E+00 -5.427846441845E+00
   96     1 H     5.280901071884E-01 -3.265136434674E+00  5.427846441845E+00
   97     1 H     2.115235570050E+00  3.905200956141E+00 -2.097392250154E+00
   98     1 H    -2.115235570050E+00 -3.905200956141E+00  2.097392250154E+00
   99     1 H     9.881688655939E-01  3.519252248807E+00 -1.072379157055E+00
  100     1 H    -9.881688655939E-01 -3.519252248807E+00  1.072379157055E+00
  101     1 H    -1.402641010544E+00  5.071625144538E+00 -1.913602399318E+00
  102     1 H     1.402641010544E+00 -5.071625144538E+00  1.913602399318E+00
  103     1 H    -5.011459674688E-01 -4.452215384469E+00 -2.927347387359E+00
  104     1 H     5.011459674688E-01  4.452215384469E+00  2.927347387359E+00
  105     1 H     4.715951590757E-01 -3.495932274071E+00 -4.633737066028E+00
  106     1 H    -4.715951590757E-01  3.495932274071E+00  4.633737066028E+00
  107     1 H    -9.039224035600E-02 -4.974143994318E+00 -5.067776865951E+00
  108     1 H     9.039224035600E-02  4.974143994318E+00  5.067776865951E+00
  109     1 H    -3.950000461649E+00  2.807160059222E+00  1.764595103008E+00
  110     1 H     3.950000461649E+00 -2.807160059222E+00 -1.764595103008E+00
  111     1 H    -4.048726948856E+00  2.551194469155E+00  3.325249811307E+00
  112     1 H     4.048726948856E+00 -2.551194469155E+00 -3.325249811307E+00
  113     1 H    -5.556805361104E-01  1.993731383272E+00 -3.583794384266E+00
  114     1 H     5.556805361104E-01 -1.993731383272E+00  3.583794384266E+00
  115     1 H    -6.425192158736E-01  1.091629341023E+00 -4.882139371338E+00
  116     1 H     6.425192158736E-01 -1.091629341023E+00  4.882139371338E+00
  117     1 H     2.278540169726E+00  9.386605681361E-02  5.442486009749E+00
  118     1 H    -2.278540169726E+00 -9.386605681361E-02 -5.442486009749E+00
  119     1 H     1.307139442728E+00 -8.582049308219E-02  6.654131867784E+00
  120     1 H    -1.307139442728E+00  8.582049308219E-02 -6.654131867784E+00

 *******************************************************************************
 STARTING BASIS SET HANDLING 
 *******************************************************************************

 Loading internal basis set: DEF2-MSVP           

 Please cite in your publication:
 Fully Optimized Contracted Gaussian Basis Sets for Atoms Li to Kr. A. Schäfer, 
 H. Horn and R. Ahlrichs; J. Chem. Phys. 97, 2571 (1992).                       
                                                                                
                    
 S. Grimme, J. G. Brandenburg, C. Bannwarth, and A. Hansen, J. Chem. Phys., 143,
  054107 (2015).                                                                
                                                                                
                    

 *******************************************************************************
 LOCAL ATOMIC FUNCTIONS BASIS SET
 *******************************************************************************
   ATOM   X(AU)   Y(AU)   Z(AU)  N. TYPE  EXPONENT  S COEF   P COEF   D/F/G COEF
 *******************************************************************************
   1 O   -4.183  -5.919 -12.283
                                  1 S  
                                         6.773E+03 1.727E-03 0.000E+00 0.000E+00
                                         1.017E+03 1.325E-02 0.000E+00 0.000E+00
                                         2.313E+02 6.603E-02 0.000E+00 0.000E+00
                                         6.501E+01 2.353E-01 0.000E+00 0.000E+00
                                         2.050E+01 5.498E-01 0.000E+00 0.000E+00
                                  2 S  
                                         6.716E+00 1.000E+00 0.000E+00 0.000E+00
                                  3 S  
                                         1.147E+00 1.000E+00 0.000E+00 0.000E+00
                                  4 S  
                                         3.342E-01 1.000E+00 0.000E+00 0.000E+00
                           5-     7 P  
                                         1.769E+01 0.000E+00 4.359E-02 0.000E+00
                                         3.854E+00 0.000E+00 2.318E-01 0.000E+00
                                         1.047E+00 0.000E+00 5.146E-01 0.000E+00
                           8-    10 P  
                                         2.759E-01 0.000E+00 1.000E+00 0.000E+00
                          11-    15 D  
                                         8.000E-01 0.000E+00 0.000E+00 1.000E+00
   2 O    4.183   5.919  12.283
   3 O   -1.752   3.499   8.832
   4 O    1.752  -3.499  -8.832
   5 O    8.168  -4.142  -0.294
   6 O   -8.168   4.142   0.294
   7 O   -1.882   6.214   0.747
   8 O    1.882  -6.214  -0.747
   9 O    9.634  -3.268   6.284
  10 O   -9.634   3.268  -6.284
  11 O   -7.538   2.381   8.242
  12 O    7.538  -2.381  -8.242
  13 O    5.533   4.813   4.693
  14 O   -5.533  -4.813  -4.693
  15 O   -7.376   0.510  -9.962
  16 O    7.376  -0.510   9.962
  17 O   -1.562   2.185   3.844
  18 O    1.562  -2.185  -3.844
  19 O    3.263   0.740   2.856
  20 O   -3.263  -0.740  -2.856
  21 O   -4.534  -2.370   9.417
  22 O    4.534   2.370  -9.417
  23 O   -4.613  -1.380   1.992
  24 O    4.613   1.380  -1.992
  25 O    2.863  -4.238   4.048
  26 O   -2.863   4.238  -4.048
  27 O   -1.243   7.684 -11.311
  28 O    1.243  -7.684  11.311
  29 O    3.616   6.366  -2.427
  30 O   -3.616  -6.366   2.427
  31 O   -1.690  -8.394  -3.798
  32 O    1.690   8.394   3.798
  33 O    0.544  -8.356  -8.193
  34 O   -0.544   8.356   8.193
  35 O   -7.637   6.161   4.971
  36 O    7.637  -6.161  -4.971
  37 O   -0.370   3.544  -8.478
  38 O    0.370  -3.544   8.478
  39 O    2.528   0.449  10.810
  40 O   -2.528  -0.449 -10.810
  41 H   -3.591  -4.319 -11.642
                                601 S  
                                         1.874E+01 1.968E-02 0.000E+00 0.000E+00
                                         2.826E+00 1.380E-01 0.000E+00 0.000E+00
                                         6.401E-01 4.783E-01 0.000E+00 0.000E+00
                                602 S  
                                         1.756E-01 1.000E+00 0.000E+00 0.000E+00
  42 H    3.591   4.319  11.642
  43 H   -4.741  -6.891 -10.832
  44 H    4.741   6.891  10.832
  45 H   -1.715   2.965   7.055
  46 H    1.715  -2.965  -7.055
  47 H   -0.474   2.491   9.665
  48 H    0.474  -2.491  -9.665
  49 H    8.781  -2.527   0.315
  50 H   -8.781   2.527  -0.315
  51 H   -4.996   8.112   0.310
  52 H    4.996  -8.112  -0.310
  53 H   -1.998   4.700   1.835
  54 H    1.998  -4.700  -1.835
  55 H   -0.631   7.251   1.627
  56 H    0.631  -7.251  -1.627
  57 H   -3.227   9.532   7.109
  58 H    3.227  -9.532  -7.109
  59 H    8.688  -4.760   5.705
  60 H   -8.688   4.760  -5.705
  61 H   -7.539   0.828   7.244
  62 H    7.539  -0.828  -7.244
  63 H   -5.892   2.491   9.034
  64 H    5.892  -2.491  -9.034
  65 H    4.243   6.004   4.132
  66 H   -4.243  -6.004  -4.132
  67 H   -7.437  -1.108   3.518
  68 H    7.437   1.108  -3.518
  69 H   -8.011   1.617  -8.613
  70 H    8.011  -1.617   8.613
  71 H    6.083   4.927  -9.750
  72 H   -6.083  -4.927   9.750
  73 H   -2.702   0.798   3.339
  74 H    2.702  -0.798  -3.339
  75 H    0.160   1.605   3.450
  76 H   -0.160  -1.605  -3.450
  77 H    3.487  -0.983   3.488
  78 H   -3.487   0.983  -3.488
  79 H    4.247   1.963   3.863
  80 H   -4.247  -1.963  -3.863
  81 H   -4.506  -1.540  11.065
  82 H    4.506   1.540 -11.065
  83 H   -2.787  -2.759   8.958
  84 H    2.787   2.759  -8.958
  85 H   -4.201  -3.165   2.296
  86 H    4.201   3.165  -2.296
  87 H   -4.292  -1.089   0.180
  88 H    4.292   1.089  -0.180
  89 H    4.334  -5.289   4.504
  90 H   -4.334   5.289  -4.504
  91 H    2.340  -4.840   2.385
  92 H   -2.340   4.840  -2.385
  93 H   -3.057   7.775 -11.713
  94 H    3.057  -7.775  11.713
  95 H   -0.998   6.170 -10.257
  96 H    0.998  -6.170  10.257
  97 H    3.997   7.380  -3.963
  98 H   -3.997  -7.380   3.963
  99 H    1.867   6.650  -2.027
 100 H   -1.867  -6.650   2.027
 101 H   -2.651   9.584  -3.616
 102 H    2.651  -9.584   3.616
 103 H   -0.947  -8.413  -5.532
 104 H    0.947   8.413   5.532
 105 H    0.891  -6.606  -8.756
 106 H   -0.891   6.606   8.756
 107 H   -0.171  -9.400  -9.577
 108 H    0.171   9.400   9.577
 109 H   -7.464   5.305   3.335
 110 H    7.464  -5.305  -3.335
 111 H   -7.651   4.821   6.284
 112 H    7.651  -4.821  -6.284
 113 H   -1.050   3.768  -6.772
 114 H    1.050  -3.768   6.772
 115 H   -1.214   2.063  -9.226
 116 H    1.214  -2.063   9.226
 117 H    4.306   0.177  10.285
 118 H   -4.306  -0.177 -10.285
 119 H    2.470  -0.162  12.574
 120 H   -2.470   0.162 -12.574

 *******************************************************************************
 FINISHED BASIS SET HANDLING 
 *******************************************************************************

 INFORMATION **** SET_MPP **** PCRYSTAL CALCULATION
 INFORMATION **** READM2 **** NEW DEFAULT: FOCK/KS MATRIX MIXING SET TO 30 %
 INFORMATION **** READM2 **** NEW DEFAULT: FULL DIRECT SCF MODE
 INFORMATION **** READM2 **** NEW DEFAULT: COULOMB BIPOLAR BUFFER SET TO 32 Mb
 INFORMATION **** READM2 **** NEW DEFAULT: EXCHANGE BIPOLAR BUFFER SET TO 32 Mb

 *******************************************************************************
 NEW DEFAULT: DFT INTEGRATION GRID INCREASED TO XLGRID
 NEW DEFAULT: DIIS ACCELERATOR ACTIVE
 USE KEYWORD NODIIS TO TURN IT OFF
 *******************************************************************************

 INFORMATION **** RDDFTP **** HSE-3c calculation
 INFORMATION **** RDDFTP **** HSE screened hybrid functional combined with D3 and gCP

PLEASE CITE:
(1) HSE-3c Reference
 J. G. Brandenburg, E. Caldeweyer, and S. Grimme, 
 Phys. Chem. Chem. Phys. 18, 15519 (2016)
(2) DFT-D3 Reference
 S. Grimme, J. Antony, S. Ehrlich,
 and H. Krieg, J. Chem. Phys. 132, 154104 (2010)
(3) gCP Reference
 H. Kruse and S. Grimme J. Chem. Phys, 136, 154101 (2012)
 J. G. Brandenburg, M. Alessio, B. Civalleri, M. F. Peintinger
 T. Bredow, and S. Grimme, J. Phys. Chem. A, 117, 9282 (2013) 

 WARNING **** RDDFTP **** HSE3c-HJS ACTIVE
 RANGE SEPARATION - OMEGA:   0.110000000000000     
 WARNING **** RDDFTP **** HSE-3c has to be combined with def2-mSVP basis set
 WARNING **** RDDFTP **** Note: Harmonic frequencies are scaled by 0.95
 WARNING **** RDDFTP **** as recommended in original publication
 INFORMATION **** BIPOSIZE **** COULOMB BIPOLAR BUFFER SET TO    60000000
 INFORMATION **** EXCHSIZE **** EXCHANGE BIPOLAR BUFFER SIZE SET TO    40000000
 *******************************************************************************
 N. OF ATOMS PER CELL       120  COULOMB OVERLAP TOL         (T1) 10**   -6
 NUMBER OF SHELLS           440  COULOMB PENETRATION TOL     (T2) 10**   -6
 NUMBER OF AO               760  EXCHANGE OVERLAP TOL        (T3) 10**   -6
 N. OF ELECTRONS PER CELL   400  EXCHANGE PSEUDO OVP (F(G))  (T4) 10**   -6
 CORE ELECTRONS PER CELL     80  EXCHANGE PSEUDO OVP (P(G))  (T5) 10**  -12
 N. OF SYMMETRY OPERATORS     2  POLE ORDER IN MONO ZONE                  4
 *******************************************************************************
 TYPE OF CALCULATION :  RESTRICTED CLOSED SHELL
 KOHN-SHAM HAMILTONIAN

 (EXCHANGE)[CORRELATION] FUNCTIONAL:(HSE-3c)[PBEh-3c]

 RANGE-SEPARATED HYBRID FUNCTIONAL 
 OMEGA (SHORT-RANGE)[LONG-RANGE]:(    0.1100)[    0.0000]

 HYBRID EXCHANGE - PERCENTAGE OF FOCK EXCHANGE    42.0000

 CAPPA:IS1  1;IS2  1;IS3  1; K PTS MONK NET   1; SYMMOPS:K SPACE   2;G SPACE   2

 *******************************************************************************
 MAX NUMBER OF SCF CYCLES      50  CONVERGENCE ON DELTAP        10**-16
 WEIGHT OF F(I) IN F(I+1)      30% CONVERGENCE ON ENERGY        10**- 6
 S(K) EIGENV. THRESHOLD  10*10.**-4
 SHRINK. FACT.(MONKH.)    1  1  1  NUMBER OF K POINTS IN THE IBZ      1
 SHRINKING FACTOR(GILAT NET)    1  NUMBER OF K POINTS(GILAT NET)      1
 *******************************************************************************
 *** K POINTS COORDINATES (OBLIQUE COORDINATES IN UNITS OF IS =  1)
   1-R(  0  0  0)

 DIRECT LATTICE VECTORS COMPON. (A.U.)     RECIP. LATTICE VECTORS COMPON. (A.U.) 
        X            Y            Z              X            Y            Z
   14.4069940    6.0423406    0.0000000      0.4361205    0.0000000   -0.1748990
    0.0000000   19.5062175    0.0000000     -0.1350948    0.3221119    0.0793098
   10.2172147   -1.9878125   25.4772002      0.0000000    0.0000000    0.2466199

 DISK SPACE FOR EIGENVECTORS (FTN 10)      577600 REALS

 SYMMETRY ADAPTION OF THE BLOCH FUNCTIONS ENABLED
 TTTTTTTTTTTTTTTTTTTTTTTTTTTTTT gordsh1     TELAPSE        0.16 TCPU        0.06

 MATRIX SIZE: P(G)  440302, F(G)   78054, P(G) IRR  110947, F(G) IRR   39452
 MAX G-VECTOR INDEX FOR 1- AND 2-ELECTRON INTEGRALS  43

 TTTTTTTTTTTTTTTTTTTTTTTTTTTTTT INPUT       TELAPSE        0.33 TCPU        0.23

 NEIGHBORS OF THE NON-EQUIVALENT ATOMS

 N = NUMBER OF NEIGHBORS AT DISTANCE R
    ATOM  N     R/ANG      R/AU   NEIGHBORS (ATOM LABELS AND CELL INDICES)
   1 O    1     0.9645     1.8227   41 H    0 0 0
   1 O    1     0.9704     1.8338   43 H    0 0 0
   1 O    1     1.7609     3.3277   94 H    0 0-1
   1 O    1     2.7265     5.1524   28 O    0 0-1
   1 O    1     2.8700     5.4234   44 H    0-1-1
   1 O    1     2.8896     5.4605   12 O   -1 0 0

   3 O    1     0.9677     1.8286   47 H    0 0 0
   3 O    1     0.9822     1.8561   45 H    0 0 0
   3 O    1     1.7064     3.2247  106 H    0 0 0
   3 O    1     2.2577     4.2665   63 H    0 0 0
   3 O    1     2.6694     5.0445   34 O    0 0 0
   3 O    1     2.7314     5.1617   17 O    0 0 0

   5 O    1     0.9694     1.8318   49 H    0 0 0
   5 O    1     0.9718     1.8365   51 H    1-1 0
   5 O    1     1.7626     3.3308  110 H    0 0 0
   5 O    1     2.5914     4.8971  101 H    1-1 0
   5 O    1     2.6891     5.0816   52 H    0 0 0
   5 O    1     2.7105     5.1220   36 O    0 0 0

   7 O    1     0.9777     1.8476   55 H    0 0 0
   7 O    1     0.9885     1.8679   53 H    0 0 0
   7 O    1     1.8261     3.4509   92 H    0 0 0
   7 O    1     1.9436     3.6729   51 H    0 0 0
   7 O    1     2.4787     4.6840   99 H    0 0 0
   7 O    1     2.6942     5.0914   17 O    0 0 0

   9 O    1     0.9836     1.8587   59 H    0 0 0
   9 O    1     0.9916     1.8739   57 H    1-1 0
   9 O    1     1.6496     3.1173   98 H    1 0 0
   9 O    1     1.7377     3.2838   70 H    0 0 0
   9 O    1     2.6400     4.9888   30 O    1 0 0
   9 O    1     2.6412     4.9912   34 O    1-1 0

  11 O    1     0.9680     1.8293   63 H    0 0 0
  11 O    1     0.9769     1.8460   61 H    0 0 0
  11 O    1     1.6568     3.1309  111 H    0 0 0
  11 O    1     1.9503     3.6856   44 H   -1 0 0
  11 O    1     2.6459     5.0000   35 O    0 0 0
  11 O    1     2.7708     5.2360   13 O   -1 0 0

  13 O    1     0.9754     1.8433   65 H    0 0 0
  13 O    1     0.9843     1.8600   67 H    1 0 0
  13 O    1     1.7118     3.2348   79 H    0 0 0
  13 O    1     1.8725     3.5385   61 H    1 0 0
  13 O    1     2.6518     5.0112   19 O    0 0 0
  13 O    1     2.6705     5.0465   23 O    1 0 0

  15 O    1     0.9828     1.8572   69 H    0 0 0
  15 O    1     1.0019     1.8933   71 H   -1 0 0
  15 O    1     1.6735     3.1624  118 H    0 0 0
  15 O    1     1.7160     3.2428  119 H    0 0-1
  15 O    1     2.5935     4.9010   22 O   -1 0 0
  15 O    1     2.6532     5.0138   40 O    0 0 0

  17 O    1     0.9841     1.8596   75 H    0 0 0
  17 O    1     0.9869     1.8650   73 H    0 0 0
  17 O    1     1.7188     3.2481   53 H    0 0 0
  17 O    1     1.7504     3.3078   45 H    0 0 0
  17 O    1     2.6694     5.0444   23 O    0 0 0
  17 O    1     2.6942     5.0914    7 O    0 0 0

  19 O    1     0.9789     1.8498   77 H    0 0 0
  19 O    1     0.9866     1.8645   79 H    0 0 0
  19 O    1     1.7062     3.2242   88 H    0 0 0
  19 O    1     1.7334     3.2757   75 H    0 0 0
  19 O    1     2.6518     5.0112   13 O    0 0 0
  19 O    1     2.6846     5.0731   24 O    0 0 0

  21 O    1     0.9762     1.8447   81 H    0 0 0
  21 O    1     0.9781     1.8483   83 H    0 0 0
  21 O    1     1.5917     3.0079   72 H    0 0 0
  21 O    1     2.5915     4.8972   61 H    0 0 0
  21 O    1     2.5935     4.9010   16 O   -1 0 0
  21 O    1     2.6788     5.0622   63 H    0 0 0

  23 O    1     0.9830     1.8576   85 H    0 0 0
  23 O    1     0.9862     1.8636   87 H    0 0 0
  23 O    1     1.6908     3.1952   73 H    0 0 0
  23 O    1     1.7045     3.2210   67 H    0 0 0
  23 O    1     2.6694     5.0444   17 O    0 0 0
  23 O    1     2.6705     5.0465   13 O   -1 0 0

  25 O    1     0.9760     1.8444   91 H    0 0 0
  25 O    1     0.9864     1.8641   89 H    0 0 0
  25 O    1     1.7495     3.3061  114 H    0 0 0
  25 O    1     1.7785     3.3608   77 H    0 0 0
  25 O    1     2.6726     5.0504   35 O    1-1 0
  25 O    1     2.7152     5.1310   38 O    0 0 0

  27 O    1     0.9842     1.8598   93 H    0 0 0
  27 O    1     0.9844     1.8602   95 H    0 0 0
  27 O    1     1.6756     3.1664  107 H    0 1 0
  27 O    1     1.8259     3.4504   81 H    1 0-1
  27 O    1     2.6424     4.9935   33 O    0 1 0
  27 O    1     2.6942     5.0913   37 O    0 0 0

  29 O    1     0.9611     1.8163   99 H    0 0 0
  29 O    1     0.9947     1.8796   97 H    0 0 0
  29 O    1     1.7232     3.2564   86 H    0 0 0
  29 O    1     1.9339     3.6546   50 H    1 0 0
  29 O    1     2.6400     4.9888   10 O    1 0 0
  29 O    1     2.7008     5.1037   24 O    0 0 0

  31 O    1     0.9602     1.8146  101 H    0-1 0
  31 O    1     0.9980     1.8860  103 H    0 0 0
  31 O    1     1.7873     3.3775   56 H    0 0 0
  31 O    1     1.8592     3.5134   66 H    0 0 0
  31 O    1     2.6089     4.9301   33 O    0 0 0
  31 O    1     2.7403     5.1784    8 O    0 0 0

  33 O    1     0.9896     1.8701  105 H    0 0 0
  33 O    1     0.9923     1.8753  107 H    0 0 0
  33 O    1     1.6146     3.0512  103 H    0 0 0
  33 O    1     1.6528     3.1233   58 H    0 0 0
  33 O    1     2.6089     4.9301   31 O    0 0 0
  33 O    1     2.6412     4.9912   10 O    1-1 0

  35 O    1     0.9816     1.8550  109 H    0 0 0
  35 O    1     0.9927     1.8760  111 H    0 0 0
  35 O    1     1.6907     3.1950   89 H   -1 1 0
  35 O    1     1.7297     3.2687   59 H   -1 1 0
  35 O    1     2.5929     4.8998  102 H   -1 1 0
  35 O    1     2.6459     5.0000   11 O    0 0 0

  37 O    1     0.9791     1.8502  113 H    0 0 0
  37 O    1     0.9852     1.8617  115 H    0 0 0
  37 O    1     1.7111     3.2336   95 H    0 0 0
  37 O    1     1.7398     3.2878   84 H    0 0 0
  37 O    1     2.6942     5.0913   27 O    0 0 0
  37 O    1     2.7003     5.1028   40 O    0 0 0

  39 O    1     0.9889     1.8687  119 H    0 0 0
  39 O    1     0.9914     1.8734  117 H    0 0 0
  39 O    1     1.7183     3.2472  116 H    0 0 0
  39 O    1     2.0143     3.8065   47 H    0 0 0
  39 O    1     2.1691     4.0990   42 H    0 0 0
  39 O    1     2.6532     5.0138   16 O    0 0 0

  41 H    1     0.9645     1.8227    1 O    0 0 0
  41 H    1     1.5512     2.9314   43 H    0 0 0
  41 H    1     2.1691     4.0990   40 O    0 0 0
  41 H    1     2.3307     4.4045   94 H    0 0-1
  41 H    1     2.3373     4.4168  118 H    0 0 0
  41 H    1     2.4939     4.7128  120 H    0 0 0

  43 H    1     0.9704     1.8338    1 O    0 0 0
  43 H    1     1.5512     2.9314   41 H    0 0 0
  43 H    1     1.9503     3.6856   12 O   -1 0 0
  43 H    1     2.0948     3.9585   94 H    0 0-1
  43 H    1     2.2073     4.1711   62 H   -1 0 0
  43 H    1     2.3766     4.4912   64 H   -1 0 0

  45 H    1     0.9822     1.8561    3 O    0 0 0
  45 H    1     1.5495     2.9281   47 H    0 0 0
  45 H    1     1.7504     3.3078   17 O    0 0 0
  45 H    1     2.1713     4.1032  106 H    0 0 0
  45 H    1     2.2674     4.2848   75 H    0 0 0
  45 H    1     2.3354     4.4133   73 H    0 0 0

  47 H    1     0.9677     1.8286    3 O    0 0 0
  47 H    1     1.5495     2.9281   45 H    0 0 0
  47 H    1     2.0143     3.8065   39 O    0 0 0
  47 H    1     2.2412     4.2352  106 H    0 0 0
  47 H    1     2.5803     4.8761   42 H    0 0 0
  47 H    1     2.5803     4.8761  116 H    0 0 0

  49 H    1     0.9694     1.8318    5 O    0 0 0
  49 H    1     1.5318     2.8947   51 H    1-1 0
  49 H    1     1.9339     3.6546   30 O    1 0 0
  49 H    1     2.2060     4.1688   98 H    1 0 0
  49 H    1     2.4099     4.5540  100 H    1 0 0
  49 H    1     2.5251     4.7718  110 H    0 0 0

  51 H    1     0.9718     1.8365    5 O   -1 1 0
  51 H    1     1.5318     2.8947   49 H   -1 1 0
  51 H    1     1.9436     3.6729    7 O    0 0 0
  51 H    1     2.1868     4.1325  110 H   -1 1 0
  51 H    1     2.4551     4.6395   55 H    0 0 0
  51 H    1     2.5351     4.7907   53 H    0 0 0

  53 H    1     0.9885     1.8679    7 O    0 0 0
  53 H    1     1.5358     2.9023   55 H    0 0 0
  53 H    1     1.7188     3.2481   17 O    0 0 0
  53 H    1     2.1718     4.1041   75 H    0 0 0
  53 H    1     2.2413     4.2354   92 H    0 0 0
  53 H    1     2.2439     4.2404   73 H    0 0 0

  55 H    1     0.9777     1.8476    7 O    0 0 0
  55 H    1     1.5358     2.9023   53 H    0 0 0
  55 H    1     1.7873     3.3775   32 O    0 0 0
  55 H    1     2.3122     4.3694  104 H    0 0 0
  55 H    1     2.3635     4.4664   99 H    0 0 0
  55 H    1     2.4551     4.6395   51 H    0 0 0

  57 H    1     0.9916     1.8739    9 O   -1 1 0
  57 H    1     1.5758     2.9778   59 H   -1 1 0
  57 H    1     1.6528     3.1233   34 O    0 0 0
  57 H    1     2.1644     4.0902  106 H    0 0 0
  57 H    1     2.1958     4.1495   98 H    0 1 0
  57 H    1     2.2233     4.2015  108 H    0 0 0

  59 H    1     0.9836     1.8587    9 O    0 0 0
  59 H    1     1.5758     2.9778   57 H    1-1 0
  59 H    1     1.7297     3.2687   35 O    1-1 0
  59 H    1     2.2270     4.2083   98 H    1 0 0
  59 H    1     2.2940     4.3350   70 H    0 0 0
  59 H    1     2.3155     4.3756  111 H    1-1 0

  61 H    1     0.9769     1.8460   11 O    0 0 0
  61 H    1     1.5595     2.9470   63 H    0 0 0
  61 H    1     1.8725     3.5385   13 O   -1 0 0
  61 H    1     2.1741     4.1084  111 H    0 0 0
  61 H    1     2.2025     4.1621   65 H   -1 0 0
  61 H    1     2.2073     4.1711   44 H   -1 0 0

  63 H    1     0.9680     1.8293   11 O    0 0 0
  63 H    1     1.5595     2.9470   61 H    0 0 0
  63 H    1     2.1221     4.0102  111 H    0 0 0
  63 H    1     2.2577     4.2665    3 O    0 0 0
  63 H    1     2.3766     4.4912   44 H   -1 0 0
  63 H    1     2.4589     4.6467   45 H    0 0 0

  65 H    1     0.9754     1.8433   13 O    0 0 0
  65 H    1     1.5836     2.9926   67 H    1 0 0
  65 H    1     1.8592     3.5134   32 O    0 0 0
  65 H    1     2.1429     4.0495   79 H    0 0 0
  65 H    1     2.2025     4.1621   61 H    1 0 0
  65 H    1     2.2549     4.2612  102 H    0 1 0

  67 H    1     0.9843     1.8600   13 O   -1 0 0
  67 H    1     1.5836     2.9926   65 H   -1 0 0
  67 H    1     1.7045     3.2210   23 O    0 0 0
  67 H    1     2.1296     4.0244   85 H    0 0 0
  67 H    1     2.1405     4.0449   79 H   -1 0 0
  67 H    1     2.2226     4.2001   61 H    0 0 0

  69 H    1     0.9828     1.8572   15 O    0 0 0
  69 H    1     1.5746     2.9755   71 H   -1 0 0
  69 H    1     1.7377     3.2838   10 O    0 0 0
  69 H    1     2.2242     4.2031   58 H   -1 1 0
  69 H    1     2.2770     4.3028  119 H    0 0-1
  69 H    1     2.2940     4.3350   60 H    0 0 0

  71 H    1     1.0019     1.8933   15 O    1 0 0
  71 H    1     1.5746     2.9755   69 H    1 0 0
  71 H    1     1.5917     3.0079   22 O    0 0 0
  71 H    1     2.0958     3.9604   82 H    0 0 0
  71 H    1     2.1294     4.0240   84 H    0 0 0
  71 H    1     2.2017     4.1607  118 H    1 0 0

  73 H    1     0.9869     1.8650   17 O    0 0 0
  73 H    1     1.5746     2.9755   75 H    0 0 0
  73 H    1     1.6908     3.1952   23 O    0 0 0
  73 H    1     2.1214     4.0088   87 H    0 0 0
  73 H    1     2.2439     4.2404   53 H    0 0 0
  73 H    1     2.3095     4.3643   85 H    0 0 0

  75 H    1     0.9841     1.8596   17 O    0 0 0
  75 H    1     1.5746     2.9755   73 H    0 0 0
  75 H    1     1.7334     3.2757   19 O    0 0 0
  75 H    1     2.1718     4.1041   53 H    0 0 0
  75 H    1     2.1819     4.1232   79 H    0 0 0
  75 H    1     2.2307     4.2154   77 H    0 0 0

  77 H    1     0.9789     1.8498   19 O    0 0 0
  77 H    1     1.6224     3.0660   79 H    0 0 0
  77 H    1     1.7785     3.3608   25 O    0 0 0
  77 H    1     2.2076     4.1717   91 H    0 0 0
  77 H    1     2.2307     4.2154   75 H    0 0 0
  77 H    1     2.2699     4.2896   88 H    0 0 0

  79 H    1     0.9866     1.8645   19 O    0 0 0
  79 H    1     1.6224     3.0660   77 H    0 0 0
  79 H    1     1.7118     3.2348   13 O    0 0 0
  79 H    1     2.1405     4.0449   67 H    1 0 0
  79 H    1     2.1429     4.0495   65 H    0 0 0
  79 H    1     2.1819     4.1232   75 H    0 0 0

  81 H    1     0.9762     1.8447   21 O    0 0 0
  81 H    1     1.5769     2.9799   83 H    0 0 0
  81 H    1     1.8259     3.4504   27 O   -1 0 1
  81 H    1     2.0958     3.9604   72 H    0 0 0
  81 H    1     2.1460     4.0553   93 H   -1 0 1
  81 H    1     2.2346     4.2229   95 H   -1 0 1

  83 H    1     0.9781     1.8483   21 O    0 0 0
  83 H    1     1.5769     2.9799   81 H    0 0 0
  83 H    1     1.7398     3.2878   38 O    0 0 0
  83 H    1     2.1294     4.0240   72 H    0 0 0
  83 H    1     2.1537     4.0700  116 H    0 0 0
  83 H    1     2.3969     4.5296  114 H    0 0 0

  85 H    1     0.9830     1.8576   23 O    0 0 0
  85 H    1     1.5695     2.9660   87 H    0 0 0
  85 H    1     1.7232     3.2564   30 O    0 0 0
  85 H    1     2.1296     4.0244   67 H    0 0 0
  85 H    1     2.2241     4.2030  100 H    0 0 0
  85 H    1     2.3095     4.3643   73 H    0 0 0

  87 H    1     0.9862     1.8636   23 O    0 0 0
  87 H    1     1.5695     2.9660   85 H    0 0 0
  87 H    1     1.7062     3.2242   20 O    0 0 0
  87 H    1     2.1214     4.0088   73 H    0 0 0
  87 H    1     2.1887     4.1361   80 H    0 0 0
  87 H    1     2.2699     4.2896   78 H    0 0 0

  89 H    1     0.9864     1.8641   25 O    0 0 0
  89 H    1     1.5580     2.9443   91 H    0 0 0
  89 H    1     1.6907     3.1950   35 O    1-1 0
  89 H    1     2.1437     4.0510  109 H    1-1 0
  89 H    1     2.2603     4.2714  114 H    0 0 0
  89 H    1     2.3833     4.5038  111 H    1-1 0

  91 H    1     0.9760     1.8444   25 O    0 0 0
  91 H    1     1.5580     2.9443   89 H    0 0 0
  91 H    1     1.8261     3.4509    8 O    0 0 0
  91 H    1     2.2076     4.1717   77 H    0 0 0
  91 H    1     2.2413     4.2354   54 H    0 0 0
  91 H    1     2.4312     4.5943  100 H    0 0 0

  93 H    1     0.9842     1.8598   27 O    0 0 0
  93 H    1     1.5817     2.9891   95 H    0 0 0
  93 H    1     1.7609     3.3277    2 O    0 0-1
  93 H    1     2.0948     3.9585   44 H    0 0-1
  93 H    1     2.1460     4.0553   81 H    1 0-1
  93 H    1     2.2654     4.2810  107 H    0 1 0

  95 H    1     0.9844     1.8602   27 O    0 0 0
  95 H    1     1.5817     2.9891   93 H    0 0 0
  95 H    1     1.7111     3.2336   37 O    0 0 0
  95 H    1     2.1587     4.0793  107 H    0 1 0
  95 H    1     2.2346     4.2229   81 H    1 0-1
  95 H    1     2.2400     4.2331  113 H    0 0 0

  97 H    1     0.9947     1.8796   29 O    0 0 0
  97 H    1     1.5716     2.9699   99 H    0 0 0
  97 H    1     1.6496     3.1173   10 O    1 0 0
  97 H    1     2.1958     4.1495   58 H    0 1 0
  97 H    1     2.2060     4.1688   50 H    1 0 0
  97 H    1     2.2270     4.2083   60 H    1 0 0

  99 H    1     0.9611     1.8163   29 O    0 0 0
  99 H    1     1.5716     2.9699   97 H    0 0 0
  99 H    1     2.2241     4.2030   86 H    0 0 0
  99 H    1     2.3635     4.4664   55 H    0 0 0
  99 H    1     2.4099     4.5540   50 H    1 0 0
  99 H    1     2.4312     4.5943   92 H    0 0 0

 101 H    1     0.9602     1.8146   31 O    0 1 0
 101 H    1     1.5741     2.9746  103 H    0 1 0
 101 H    1     2.2549     4.2612   66 H    0 1 0
 101 H    1     2.3977     4.5311  110 H   -1 1 0
 101 H    1     2.4742     4.6756   56 H    0 1 0
 101 H    1     2.4860     4.6979   90 H    0 0 0

 103 H    1     0.9980     1.8860   31 O    0 0 0
 103 H    1     1.5741     2.9746  101 H    0-1 0
 103 H    1     1.6146     3.0512   33 O    0 0 0
 103 H    1     2.1846     4.1283  105 H    0 0 0
 103 H    1     2.2411     4.2351  107 H    0 0 0
 103 H    1     2.2842     4.3165   66 H    0 0 0

 105 H    1     0.9896     1.8701   33 O    0 0 0
 105 H    1     1.6399     3.0990  107 H    0 0 0
 105 H    1     1.7064     3.2247    4 O    0 0 0
 105 H    1     2.1644     4.0902   58 H    0 0 0
 105 H    1     2.1713     4.1032   46 H    0 0 0
 105 H    1     2.1846     4.1283  103 H    0 0 0

 107 H    1     0.9923     1.8753   33 O    0 0 0
 107 H    1     1.6399     3.0990  105 H    0 0 0
 107 H    1     1.6756     3.1664   27 O    0-1 0
 107 H    1     2.1587     4.0793   95 H    0-1 0
 107 H    1     2.2233     4.2015   58 H    0 0 0
 107 H    1     2.2411     4.2351  103 H    0 0 0

 109 H    1     0.9816     1.8550   35 O    0 0 0
 109 H    1     1.5846     2.9944  111 H    0 0 0
 109 H    1     1.7626     3.3308    6 O    0 0 0
 109 H    1     2.1437     4.0510   89 H   -1 1 0
 109 H    1     2.1868     4.1325   52 H   -1 1 0
 109 H    1     2.3796     4.4968   59 H   -1 1 0

 111 H    1     0.9927     1.8760   35 O    0 0 0
 111 H    1     1.5846     2.9944  109 H    0 0 0
 111 H    1     1.6568     3.1309   11 O    0 0 0
 111 H    1     2.1221     4.0102   63 H    0 0 0
 111 H    1     2.1741     4.1084   61 H    0 0 0
 111 H    1     2.3155     4.3756   59 H   -1 1 0

 113 H    1     0.9791     1.8502   37 O    0 0 0
 113 H    1     1.5834     2.9921  115 H    0 0 0
 113 H    1     1.7495     3.3061   26 O    0 0 0
 113 H    1     2.2400     4.2331   95 H    0 0 0
 113 H    1     2.2603     4.2714   90 H    0 0 0
 113 H    1     2.3969     4.5296   84 H    0 0 0

 115 H    1     0.9852     1.8617   37 O    0 0 0
 115 H    1     1.5834     2.9921  113 H    0 0 0
 115 H    1     1.7183     3.2472   40 O    0 0 0
 115 H    1     2.0967     3.9621  118 H    0 0 0
 115 H    1     2.1432     4.0501  120 H    0 0 0
 115 H    1     2.1537     4.0700   84 H    0 0 0

 117 H    1     0.9914     1.8734   39 O    0 0 0
 117 H    1     1.5633     2.9543  119 H    0 0 0
 117 H    1     1.6735     3.1624   16 O    0 0 0
 117 H    1     2.0967     3.9621  116 H    0 0 0
 117 H    1     2.2017     4.1607   72 H    1 0 0
 117 H    1     2.3373     4.4168   42 H    0 0 0

 119 H    1     0.9889     1.8687   39 O    0 0 0
 119 H    1     1.5633     2.9543  117 H    0 0 0
 119 H    1     1.7160     3.2428   15 O    0 0 1
 119 H    1     2.1432     4.0501  116 H    0 0 0
 119 H    1     2.2770     4.3028   69 H    0 0 1
 119 H    1     2.3018     4.3498   71 H   -1 0 1


 SYMMETRY ALLOWED INTERNAL DEGREE(S) OF FREEDOM: 180
 TTTTTTTTTTTTTTTTTTTTTTTTTTTTTT SYMM        TELAPSE        0.40 TCPU        0.30
 TTTTTTTTTTTTTTTTTTTTTTTTTTTTTT INT_SCREEN  TELAPSE        0.43 TCPU        0.33

 DFT PARAMETERS

     ATOM       ELECTRONS   NET CHARGE   R(ANGSTROM)
   1   8  O       8.0000      0.0000     0.74000000
  41   1  H       1.0000      0.0000     1.11000000

 SIZE OF GRID=    1356503
 TTTTTTTTTTTTTTTTTTTTTTTTTTTTTT MAKE_GRID2  TELAPSE       19.29 TCPU       19.18
 BECKE WEIGHT FUNCTION
 RADSAFE =     2.00
 TOLERANCES - DENSITY:10**- 6; POTENTIAL:10**- 9; GRID WGT:10**-14

 RADIAL INTEGRATION  - INTERVALS (POINTS,UPPER LIMIT):            1( 75,  4.0*R)

 ANGULAR INTEGRATION - INTERVALS (ACCURACY LEVEL [N. POINTS] UPPER LIMIT):
  1(  4[  86]   0.2)  2(  8[ 194]   0.5)  3( 12[ 350]   0.9)  4( 16[ 974]   3.5)
  5( 12[ 350]9999.0)
 TTTTTTTTTTTTTTTTTTTTTTTTTTTTTT INT_CALC    TELAPSE       19.36 TCPU       19.25
 EEEEEEEEEE INT_CALC TERMINATION  DATE 25 03 2019 TIME 17:51:16.9

 *******************************************************************************
 !drive by JGB                                                                   
 CRYSTAL - SCF - TYPE OF CALCULATION :  RESTRICTED CLOSED SHELL
 *******************************************************************************

 CAPPA:IS1  1;IS2  1;IS3  1; K PTS MONK NET   1; SYMMOPS:K SPACE   2;G SPACE   2

 TTTTTTTTTTTTTTTTTTTTTTTTTTTTTT SDIK        TELAPSE       20.66 TCPU       20.55

 AAAAAAAAAAAAAAAAAAAAAAAAAAAAAAAAAAAAAAAAAAAAAAAAAAAAAAAAAAAAAAAAAAAAAAAAAAAAAAA
         ATOMIC WAVEFUNCTION(S)


 NUCLEAR CHARGE  8.0  SYMMETRY SPECIES            S    P
 N. ELECTRONS    8.0  NUMBER OF PRIMITIVE GTOS    8    4
                      NUMBER OF CONTRACTED GTOS   4    2
                      NUMBER OF CLOSED SHELLS     2    0
                      OPEN SHELL OCCUPATION       0    4

  ZNUC SCFIT  TOTAL HF ENERGY   KINETIC ENERGY   VIRIAL THEOREM ACCURACY
   8.0  12   -7.477373220E+01  7.477365593E+01 -2.000001020E+00  3.8E-06

 NUCLEAR CHARGE  1.0  SYMMETRY SPECIES            S
 N. ELECTRONS    1.0  NUMBER OF PRIMITIVE GTOS    4
                      NUMBER OF CONTRACTED GTOS   2
                      NUMBER OF CLOSED SHELLS     0
                      OPEN SHELL OCCUPATION       1

  ZNUC SCFIT  TOTAL HF ENERGY   KINETIC ENERGY   VIRIAL THEOREM ACCURACY
   1.0   1   -4.977266687E-01  5.190767460E-01 -1.958869132E+00  1.8E-16

 AAAAAAAAAAAAAAAAAAAAAAAAAAAAAAAAAAAAAAAAAAAAAAAAAAAAAAAAAAAAAAAAAAAAAAAAAAAAAAA

 CHARGE NORMALIZATION FACTOR   1.00000000
 TOTAL ATOMIC CHARGES:
   8.0000000   8.0000000   8.0000000   8.0000000   8.0000000   8.0000000
   8.0000000   8.0000000   8.0000000   8.0000000   8.0000000   8.0000000
   8.0000000   8.0000000   8.0000000   8.0000000   8.0000000   8.0000000
   8.0000000   8.0000000   8.0000000   8.0000000   8.0000000   8.0000000
   8.0000000   8.0000000   8.0000000   8.0000000   8.0000000   8.0000000
   8.0000000   8.0000000   8.0000000   8.0000000   8.0000000   8.0000000
   8.0000000   8.0000000   8.0000000   8.0000000   1.0000000   1.0000000
   1.0000000   1.0000000   1.0000000   1.0000000   1.0000000   1.0000000
   1.0000000   1.0000000   1.0000000   1.0000000   1.0000000   1.0000000
   1.0000000   1.0000000   1.0000000   1.0000000   1.0000000   1.0000000
   1.0000000   1.0000000   1.0000000   1.0000000   1.0000000   1.0000000
   1.0000000   1.0000000   1.0000000   1.0000000   1.0000000   1.0000000
   1.0000000   1.0000000   1.0000000   1.0000000   1.0000000   1.0000000
   1.0000000   1.0000000   1.0000000   1.0000000   1.0000000   1.0000000
   1.0000000   1.0000000   1.0000000   1.0000000   1.0000000   1.0000000
   1.0000000   1.0000000   1.0000000   1.0000000   1.0000000   1.0000000
   1.0000000   1.0000000   1.0000000   1.0000000   1.0000000   1.0000000
   1.0000000   1.0000000   1.0000000   1.0000000   1.0000000   1.0000000
   1.0000000   1.0000000   1.0000000   1.0000000   1.0000000   1.0000000
   1.0000000   1.0000000   1.0000000   1.0000000   1.0000000   1.0000000
 TTTTTTTTTTTTTTTTTTTTTTTTTTTTTT MOQGAD      TELAPSE       21.13 TCPU       21.02
 TTTTTTTTTTTTTTTTTTTTTTTTTTTTTT SHELLXN     TELAPSE       65.64 TCPU       65.49
 TTTTTTTTTTTTTTTTTTTTTTTTTTTTTT MONMO3      TELAPSE       70.66 TCPU       70.51
 NUMERICALLY INTEGRATED DENSITY    400.0000633392
 TTTTTTTTTTTTTTTTTTTTTTTTTTTTTT NUMDFT      TELAPSE       74.67 TCPU       74.52
 CYC   0 ETOT(AU) -3.052839640329E+03 DETOT -3.05E+03 tst  0.00E+00 PX  1.00E+00
 TTTTTTTTTTTTTTTTTTTTTTTTTTTTTT DIIS        TELAPSE       74.68 TCPU       74.53
 TTTTTTTTTTTTTTTTTTTTTTTTTTTTTT FDIK        TELAPSE       75.05 TCPU       74.88
 INSULATING STATE
 TOP OF VALENCE BANDS -    BAND    200; K    1; EIG -4.1490469E-01 AU
 BOTTOM OF VIRTUAL BANDS - BAND    201; K    1; EIG -8.3294791E-02 AU
 DIRECT ENERGY BAND GAP:   9.0236 eV
 TTTTTTTTTTTTTTTTTTTTTTTTTTTTTT PDIG        TELAPSE       75.07 TCPU       74.90
 CHARGE NORMALIZATION FACTOR   1.00000000
 TOTAL ATOMIC CHARGES:
   9.0689030   9.0689030   9.0737135   9.0737135   9.0863963   9.0863963
   9.0898302   9.0898302   9.0744031   9.0744031   9.0298080   9.0298080
   9.0733854   9.0733854   9.0864996   9.0864996   9.0761877   9.0761877
   9.0643980   9.0643980   9.0897935   9.0897935   9.0736631   9.0736631
   9.0761216   9.0761216   9.0726065   9.0726065   9.0576067   9.0576067
   9.0592394   9.0592394   9.0643818   9.0643818   9.0703833   9.0703833
   9.0722604   9.0722604   9.0750895   9.0750895   0.4694041   0.4694041
   0.4663832   0.4663832   0.4677548   0.4677548   0.4619687   0.4619687
   0.4655721   0.4655721   0.4689730   0.4689730   0.4686573   0.4686573
   0.4622837   0.4622837   0.4648634   0.4648634   0.4598217   0.4598217
   0.4632548   0.4632548   0.4650187   0.4650187   0.4693321   0.4693321
   0.4615396   0.4615396   0.4622480   0.4622480   0.4669214   0.4669214
   0.4622875   0.4622875   0.4684190   0.4684190   0.4613536   0.4613536
   0.4608765   0.4608765   0.4691703   0.4691703   0.4630619   0.4630619
   0.4622648   0.4622648   0.4634568   0.4634568   0.4618541   0.4618541
   0.4554275   0.4554275   0.4684855   0.4684855   0.4656673   0.4656673
   0.4609826   0.4609826   0.4670237   0.4670237   0.4709495   0.4709495
   0.4640069   0.4640069   0.4605454   0.4605454   0.4551789   0.4551789
   0.4604080   0.4604080   0.4626044   0.4626044   0.4590569   0.4590569
   0.4677960   0.4677960   0.4627598   0.4627598   0.4676961   0.4676961
 TTTTTTTTTTTTTTTTTTTTTTTTTTTTTT MOQGAD      TELAPSE       75.09 TCPU       74.92
 TTTTTTTTTTTTTTTTTTTTTTTTTTTTTT SHELLXN     TELAPSE      121.34 TCPU      121.16
 TTTTTTTTTTTTTTTTTTTTTTTTTTTTTT MONMO3      TELAPSE      126.50 TCPU      126.33
 NUMERICALLY INTEGRATED DENSITY    400.0000649490
 TTTTTTTTTTTTTTTTTTTTTTTTTTTTTT NUMDFT      TELAPSE      133.29 TCPU      133.11
 CYC   1 ETOT(AU) -3.050709920317E+03 DETOT  2.13E+00 tst  0.00E+00 PX  1.00E+00
 TTTTTTTTTTTTTTTTTTTTTTTTTTTTTT DIIS        TELAPSE      133.37 TCPU      133.20
 DIIS TEST: 0.42859E+01 AT SCF   CYCLE   1 - MIX   30 %
 TTTTTTTTTTTTTTTTTTTTTTTTTTTTTT FDIK        TELAPSE      133.49 TCPU      133.32
 INSULATING STATE
 TOP OF VALENCE BANDS -    BAND    200; K    1; EIG -2.9960682E-01 AU
 BOTTOM OF VIRTUAL BANDS - BAND    201; K    1; EIG -2.8811311E-02 AU
 DIRECT ENERGY BAND GAP:   7.3687 eV
 TTTTTTTTTTTTTTTTTTTTTTTTTTTTTT PDIG        TELAPSE      133.51 TCPU      133.34
 CHARGE NORMALIZATION FACTOR   1.00000000
 TOTAL ATOMIC CHARGES:
   8.8011881   8.8011881   8.8265036   8.8265036   8.8313695   8.8313695
   8.8658258   8.8658258   8.8743624   8.8743624   8.8182106   8.8182106
   8.8436569   8.8436569   8.8835210   8.8835210   8.8657886   8.8657886
   8.8616670   8.8616670   8.8533630   8.8533630   8.8678338   8.8678338
   8.8651217   8.8651217   8.8604713   8.8604713   8.8232792   8.8232792
   8.8287433   8.8287433   8.8842249   8.8842249   8.8748286   8.8748286
   8.8656996   8.8656996   8.8633940   8.8633940   0.6140195   0.6140195
   0.5854612   0.5854612   0.5812564   0.5812564   0.5873096   0.5873096
   0.5931311   0.5931311   0.5935342   0.5935342   0.5689911   0.5689911
   0.5802259   0.5802259   0.5618335   0.5618335   0.5577027   0.5577027
   0.5679060   0.5679060   0.5705080   0.5705080   0.5879779   0.5879779
   0.5668214   0.5668214   0.5657662   0.5657662   0.5650749   0.5650749
   0.5629454   0.5629454   0.5777243   0.5777243   0.5649210   0.5649210
   0.5610560   0.5610560   0.5918610   0.5918610   0.5766495   0.5766495
   0.5624537   0.5624537   0.5663302   0.5663302   0.5630042   0.5630042
   0.5696252   0.5696252   0.5745589   0.5745589   0.5753185   0.5753185
   0.5581295   0.5581295   0.6093980   0.6093980   0.6126417   0.6126417
   0.5577289   0.5577289   0.5575309   0.5575309   0.5438382   0.5438382
   0.5653340   0.5653340   0.5582969   0.5582969   0.5656371   0.5656371
   0.5784828   0.5784828   0.5672673   0.5672673   0.5726940   0.5726940
 TTTTTTTTTTTTTTTTTTTTTTTTTTTTTT MOQGAD      TELAPSE      133.53 TCPU      133.36
 TTTTTTTTTTTTTTTTTTTTTTTTTTTTTT SHELLXN     TELAPSE      180.30 TCPU      180.12
 TTTTTTTTTTTTTTTTTTTTTTTTTTTTTT MONMO3      TELAPSE      185.40 TCPU      185.22
 NUMERICALLY INTEGRATED DENSITY    400.0000681847
 TTTTTTTTTTTTTTTTTTTTTTTTTTTTTT NUMDFT      TELAPSE      192.08 TCPU      191.90
 CYC   2 ETOT(AU) -3.051580290748E+03 DETOT -8.70E-01 tst  1.29E-03 PX  1.37E-01
 TTTTTTTTTTTTTTTTTTTTTTTTTTTTTT DIIS        TELAPSE      192.16 TCPU      191.98
 DIIS TEST: 0.92813E+00 AT SCF   CYCLE   2 - DIIS ACTIVE - HISTORY:     2 CYCLES
 TTTTTTTTTTTTTTTTTTTTTTTTTTTTTT FDIK        TELAPSE      192.28 TCPU      192.10
 INSULATING STATE
 TOP OF VALENCE BANDS -    BAND    200; K    1; EIG -3.4773321E-01 AU
 BOTTOM OF VIRTUAL BANDS - BAND    201; K    1; EIG -3.0466955E-02 AU
 DIRECT ENERGY BAND GAP:   8.6333 eV
 TTTTTTTTTTTTTTTTTTTTTTTTTTTTTT PDIG        TELAPSE      192.30 TCPU      192.12
 CHARGE NORMALIZATION FACTOR   1.00000000
 TOTAL ATOMIC CHARGES:
   8.8916791   8.8916791   8.9147980   8.9147980   8.9184437   8.9184437
   8.9446003   8.9446003   8.9438750   8.9438750   8.8937429   8.8937429
   8.9241349   8.9241349   8.9502392   8.9502392   8.9369302   8.9369302
   8.9291608   8.9291608   8.9303808   8.9303808   8.9355575   8.9355575
   8.9369409   8.9369409   8.9323385   8.9323385   8.9030042   8.9030042
   8.9064253   8.9064253   8.9448486   8.9448486   8.9425277   8.9425277
   8.9313116   8.9313116   8.9404024   8.9404024   0.5694303   0.5694303
   0.5427640   0.5427640   0.5389880   0.5389880   0.5465517   0.5465517
   0.5500312   0.5500312   0.5481247   0.5481247   0.5318538   0.5318538
   0.5402612   0.5402612   0.5270938   0.5270938   0.5244910   0.5244910
   0.5281597   0.5281597   0.5353696   0.5353696   0.5478475   0.5478475
   0.5297712   0.5297712   0.5321550   0.5321550   0.5274756   0.5274756
   0.5272595   0.5272595   0.5403426   0.5403426   0.5316920   0.5316920
   0.5265306   0.5265306   0.5505075   0.5505075   0.5379651   0.5379651
   0.5280791   0.5280791   0.5311965   0.5311965   0.5279071   0.5279071
   0.5337236   0.5337236   0.5362038   0.5362038   0.5388117   0.5388117
   0.5210148   0.5210148   0.5715093   0.5715093   0.5745301   0.5745301
   0.5225706   0.5225706   0.5233196   0.5233196   0.5108715   0.5108715
   0.5290909   0.5290909   0.5240257   0.5240257   0.5323538   0.5323538
   0.5425599   0.5425599   0.5301226   0.5301226   0.5361018   0.5361018
 TTTTTTTTTTTTTTTTTTTTTTTTTTTTTT MOQGAD      TELAPSE      192.32 TCPU      192.13
 TTTTTTTTTTTTTTTTTTTTTTTTTTTTTT SHELLXN     TELAPSE      239.06 TCPU      238.87
 TTTTTTTTTTTTTTTTTTTTTTTTTTTTTT MONMO3      TELAPSE      244.01 TCPU      243.82
 NUMERICALLY INTEGRATED DENSITY    400.0000667993
 TTTTTTTTTTTTTTTTTTTTTTTTTTTTTT NUMDFT      TELAPSE      250.13 TCPU      249.94
 CYC   3 ETOT(AU) -3.051823628663E+03 DETOT -2.43E-01 tst  2.08E-04 PX  5.52E-02
 TTTTTTTTTTTTTTTTTTTTTTTTTTTTTT DIIS        TELAPSE      250.19 TCPU      250.00
 DIIS TEST: 0.64701E-02 AT SCF   CYCLE   3 - DIIS ACTIVE - HISTORY:     3 CYCLES
 TTTTTTTTTTTTTTTTTTTTTTTTTTTTTT FDIK        TELAPSE      250.32 TCPU      250.00
 INSULATING STATE
 TOP OF VALENCE BANDS -    BAND    200; K    1; EIG -3.4644187E-01 AU
 BOTTOM OF VIRTUAL BANDS - BAND    201; K    1; EIG -2.7043253E-02 AU
 DIRECT ENERGY BAND GAP:   8.6913 eV
 TTTTTTTTTTTTTTTTTTTTTTTTTTTTTT PDIG        TELAPSE      250.33 TCPU      250.02
 CHARGE NORMALIZATION FACTOR   1.00000000
 TOTAL ATOMIC CHARGES:
   8.8773320   8.8773320   8.9018583   8.9018583   8.9074198   8.9074198
   8.9390742   8.9390742   8.9447115   8.9447115   8.8879997   8.8879997
   8.9182477   8.9182477   8.9548319   8.9548319   8.9384321   8.9384321
   8.9308099   8.9308099   8.9261145   8.9261145   8.9382023   8.9382023
   8.9347154   8.9347154   8.9323657   8.9323657   8.8949477   8.8949477
   8.8991857   8.8991857   8.9532248   8.9532248   8.9448073   8.9448073
   8.9353036   8.9353036   8.9365406   8.9365406   0.5748874   0.5748874
   0.5491355   0.5491355   0.5428714   0.5428714   0.5512833   0.5512833
   0.5547676   0.5547676   0.5528387   0.5528387   0.5340863   0.5340863
   0.5425066   0.5425066   0.5262660   0.5262660   0.5242494   0.5242494
   0.5310717   0.5310717   0.5390613   0.5390613   0.5502950   0.5502950
   0.5316303   0.5316303   0.5311072   0.5311072   0.5270472   0.5270472
   0.5271523   0.5271523   0.5399035   0.5399035   0.5315578   0.5315578
   0.5269429   0.5269429   0.5519166   0.5519166   0.5390127   0.5390127
   0.5284558   0.5284558   0.5305573   0.5305573   0.5285085   0.5285085
   0.5344917   0.5344917   0.5380713   0.5380713   0.5384681   0.5384681
   0.5235371   0.5235371   0.5743061   0.5743061   0.5768267   0.5768267
   0.5238616   0.5238616   0.5228691   0.5228691   0.5096740   0.5096740
   0.5300280   0.5300280   0.5243083   0.5243083   0.5313606   0.5313606
   0.5415497   0.5415497   0.5306325   0.5306325   0.5367782   0.5367782
 TTTTTTTTTTTTTTTTTTTTTTTTTTTTTT MOQGAD      TELAPSE      250.35 TCPU      250.04
 TTTTTTTTTTTTTTTTTTTTTTTTTTTTTT SHELLXN     TELAPSE      295.99 TCPU      295.67
 TTTTTTTTTTTTTTTTTTTTTTTTTTTTTT MONMO3      TELAPSE      301.11 TCPU      300.79
 NUMERICALLY INTEGRATED DENSITY    400.0000669834
 TTTTTTTTTTTTTTTTTTTTTTTTTTTTTT NUMDFT      TELAPSE      307.45 TCPU      307.12
 CYC   4 ETOT(AU) -3.051824455806E+03 DETOT -8.27E-04 tst  2.27E-06 PX  6.98E-03
 TTTTTTTTTTTTTTTTTTTTTTTTTTTTTT DIIS        TELAPSE      307.51 TCPU      307.18
 DIIS TEST: 0.17334E-02 AT SCF   CYCLE   4 - DIIS ACTIVE - HISTORY:     4 CYCLES
 TTTTTTTTTTTTTTTTTTTTTTTTTTTTTT FDIK        TELAPSE      307.60 TCPU      307.26
 INSULATING STATE
 TOP OF VALENCE BANDS -    BAND    200; K    1; EIG -3.4661274E-01 AU
 BOTTOM OF VIRTUAL BANDS - BAND    201; K    1; EIG -2.6976790E-02 AU
 DIRECT ENERGY BAND GAP:   8.6977 eV
 TTTTTTTTTTTTTTTTTTTTTTTTTTTTTT PDIG        TELAPSE      307.62 TCPU      307.28
 CHARGE NORMALIZATION FACTOR   1.00000000
 TOTAL ATOMIC CHARGES:
   8.8850720   8.8850720   8.9094131   8.9094131   8.9127720   8.9127720
   8.9405832   8.9405832   8.9424341   8.9424341   8.8893161   8.8893161
   8.9205346   8.9205346   8.9491429   8.9491429   8.9349724   8.9349724
   8.9275506   8.9275506   8.9274966   8.9274966   8.9341296   8.9341296
   8.9342839   8.9342839   8.9303341   8.9303341   8.8985329   8.8985329
   8.9022105   8.9022105   8.9444177   8.9444177   8.9403969   8.9403969
   8.9301180   8.9301180   8.9373905   8.9373905   0.5720295   0.5720295
   0.5462016   0.5462016   0.5409311   0.5409311   0.5489379   0.5489379
   0.5526529   0.5526529   0.5508315   0.5508315   0.5337403   0.5337403
   0.5419198   0.5419198   0.5279855   0.5279855   0.5254382   0.5254382
   0.5303967   0.5303967   0.5381395   0.5381395   0.5496279   0.5496279
   0.5312742   0.5312742   0.5329195   0.5329195   0.5284683   0.5284683
   0.5284867   0.5284867   0.5413464   0.5413464   0.5326961   0.5326961
   0.5277368   0.5277368   0.5519469   0.5519469   0.5391717   0.5391717
   0.5293214   0.5293214   0.5321184   0.5321184   0.5291027   0.5291027
   0.5347501   0.5347501   0.5379459   0.5379459   0.5396359   0.5396359
   0.5227008   0.5227008   0.5733807   0.5733807   0.5762186   0.5762186
   0.5238732   0.5238732   0.5244296   0.5244296   0.5119306   0.5119306
   0.5307998   0.5307998   0.5251957   0.5251957   0.5329942   0.5329942
   0.5431465   0.5431465   0.5311543   0.5311543   0.5373208   0.5373208
 TTTTTTTTTTTTTTTTTTTTTTTTTTTTTT MOQGAD      TELAPSE      307.64 TCPU      307.30
 TTTTTTTTTTTTTTTTTTTTTTTTTTTTTT SHELLXN     TELAPSE      353.71 TCPU      353.36
 TTTTTTTTTTTTTTTTTTTTTTTTTTTTTT MONMO3      TELAPSE      359.02 TCPU      358.67
 NUMERICALLY INTEGRATED DENSITY    400.0000669026
 TTTTTTTTTTTTTTTTTTTTTTTTTTTTTT NUMDFT      TELAPSE      365.79 TCPU      365.44
 CYC   5 ETOT(AU) -3.051824710209E+03 DETOT -2.54E-04 tst  7.34E-07 PX  4.23E-03
 TTTTTTTTTTTTTTTTTTTTTTTTTTTTTT DIIS        TELAPSE      365.86 TCPU      365.50
 DIIS TEST: 0.58103E-03 AT SCF   CYCLE   5 - DIIS ACTIVE - HISTORY:     5 CYCLES
 TTTTTTTTTTTTTTTTTTTTTTTTTTTTTT FDIK        TELAPSE      365.94 TCPU      365.58
 INSULATING STATE
 TOP OF VALENCE BANDS -    BAND    200; K    1; EIG -3.4639528E-01 AU
 BOTTOM OF VIRTUAL BANDS - BAND    201; K    1; EIG -2.6939086E-02 AU
 DIRECT ENERGY BAND GAP:   8.6928 eV
 TTTTTTTTTTTTTTTTTTTTTTTTTTTTTT PDIG        TELAPSE      365.96 TCPU      365.60
 CHARGE NORMALIZATION FACTOR   1.00000000
 TOTAL ATOMIC CHARGES:
   8.8821637   8.8821637   8.9060700   8.9060700   8.9108033   8.9108033
   8.9401584   8.9401584   8.9429246   8.9429246   8.8890550   8.8890550
   8.9194837   8.9194837   8.9516711   8.9516711   8.9365350   8.9365350
   8.9287976   8.9287976   8.9265518   8.9265518   8.9357899   8.9357899
   8.9341942   8.9341942   8.9310170   8.9310170   8.8970998   8.8970998
   8.9007646   8.9007646   8.9484800   8.9484800   8.9425364   8.9425364
   8.9322838   8.9322838   8.9367063   8.9367063   0.5732786   0.5732786
   0.5471403   0.5471403   0.5418121   0.5418121   0.5500422   0.5500422
   0.5534596   0.5534596   0.5515487   0.5515487   0.5337143   0.5337143
   0.5421762   0.5421762   0.5273448   0.5273448   0.5249911   0.5249911
   0.5306121   0.5306121   0.5383327   0.5383327   0.5500659   0.5500659
   0.5313793   0.5313793   0.5320969   0.5320969   0.5278795   0.5278795
   0.5278744   0.5278744   0.5407842   0.5407842   0.5322652   0.5322652
   0.5274262   0.5274262   0.5520410   0.5520410   0.5392055   0.5392055
   0.5289022   0.5289022   0.5314904   0.5314904   0.5288590   0.5288590
   0.5347319   0.5347319   0.5379343   0.5379343   0.5392921   0.5392921
   0.5229720   0.5229720   0.5740331   0.5740331   0.5767890   0.5767890
   0.5238126   0.5238126   0.5236046   0.5236046   0.5107552   0.5107552
   0.5303682   0.5303682   0.5246875   0.5246875   0.5323878   0.5323878
   0.5425737   0.5425737   0.5310446   0.5310446   0.5372047   0.5372047
 TTTTTTTTTTTTTTTTTTTTTTTTTTTTTT MOQGAD      TELAPSE      365.98 TCPU      365.61
 TTTTTTTTTTTTTTTTTTTTTTTTTTTTTT SHELLXN     TELAPSE      412.39 TCPU      412.01
 TTTTTTTTTTTTTTTTTTTTTTTTTTTTTT MONMO3      TELAPSE      417.69 TCPU      417.32
 NUMERICALLY INTEGRATED DENSITY    400.0000669338
 TTTTTTTTTTTTTTTTTTTTTTTTTTTTTT NUMDFT      TELAPSE      424.30 TCPU      423.93
 CYC   6 ETOT(AU) -3.051824790670E+03 DETOT -8.05E-05 tst  1.17E-07 PX  1.68E-03
 TTTTTTTTTTTTTTTTTTTTTTTTTTTTTT DIIS        TELAPSE      424.37 TCPU      423.99
 DIIS TEST: 0.26434E-03 AT SCF   CYCLE   6 - DIIS ACTIVE - HISTORY:     6 CYCLES
 TTTTTTTTTTTTTTTTTTTTTTTTTTTTTT FDIK        TELAPSE      424.48 TCPU      424.00
 INSULATING STATE
 TOP OF VALENCE BANDS -    BAND    200; K    1; EIG -3.4653200E-01 AU
 BOTTOM OF VIRTUAL BANDS - BAND    201; K    1; EIG -2.6904891E-02 AU
 DIRECT ENERGY BAND GAP:   8.6975 eV
 TTTTTTTTTTTTTTTTTTTTTTTTTTTTTT PDIG        TELAPSE      424.50 TCPU      424.02
 CHARGE NORMALIZATION FACTOR   1.00000000
 TOTAL ATOMIC CHARGES:
   8.8823067   8.8823067   8.9067772   8.9067772   8.9108405   8.9108405
   8.9400413   8.9400413   8.9433441   8.9433441   8.8888318   8.8888318
   8.9196522   8.9196522   8.9511301   8.9511301   8.9362128   8.9362128
   8.9287176   8.9287176   8.9270372   8.9270372   8.9355897   8.9355897
   8.9344995   8.9344995   8.9310246   8.9310246   8.8971619   8.8971619
   8.9011192   8.9011192   8.9474706   8.9474706   8.9419913   8.9419913
   8.9319185   8.9319185   8.9371078   8.9371078   0.5731513   0.5731513
   0.5471686   0.5471686   0.5416064   0.5416064   0.5497977   0.5497977
   0.5534453   0.5534453   0.5515514   0.5515514   0.5338066   0.5338066
   0.5421543   0.5421543   0.5273353   0.5273353   0.5249753   0.5249753
   0.5306407   0.5306407   0.5384500   0.5384500   0.5499671   0.5499671
   0.5313720   0.5313720   0.5322436   0.5322436   0.5279218   0.5279218
   0.5279951   0.5279951   0.5408687   0.5408687   0.5322865   0.5322865
   0.5274636   0.5274636   0.5519359   0.5519359   0.5390719   0.5390719
   0.5289662   0.5289662   0.5315439   0.5315439   0.5288149   0.5288149
   0.5346581   0.5346581   0.5379507   0.5379507   0.5392954   0.5392954
   0.5229398   0.5229398   0.5739506   0.5739506   0.5766612   0.5766612
   0.5237935   0.5237935   0.5238535   0.5238535   0.5110501   0.5110501
   0.5305216   0.5305216   0.5248186   0.5248186   0.5324490   0.5324490
   0.5426287   0.5426287   0.5309849   0.5309849   0.5371353   0.5371353
 TTTTTTTTTTTTTTTTTTTTTTTTTTTTTT MOQGAD      TELAPSE      424.51 TCPU      424.04
 TTTTTTTTTTTTTTTTTTTTTTTTTTTTTT SHELLXN     TELAPSE      470.93 TCPU      470.45
 TTTTTTTTTTTTTTTTTTTTTTTTTTTTTT MONMO3      TELAPSE      476.13 TCPU      475.65
 NUMERICALLY INTEGRATED DENSITY    400.0000669377
 TTTTTTTTTTTTTTTTTTTTTTTTTTTTTT NUMDFT      TELAPSE      482.24 TCPU      481.76
 CYC   7 ETOT(AU) -3.051824806411E+03 DETOT -1.57E-05 tst  5.71E-09 PX  3.47E-04
 TTTTTTTTTTTTTTTTTTTTTTTTTTTTTT DIIS        TELAPSE      482.31 TCPU      481.83
 DIIS TEST: 0.24884E-05 AT SCF   CYCLE   7 - DIIS ACTIVE - HISTORY:     7 CYCLES
 TTTTTTTTTTTTTTTTTTTTTTTTTTTTTT FDIK        TELAPSE      482.40 TCPU      481.91
 INSULATING STATE
 TOP OF VALENCE BANDS -    BAND    200; K    1; EIG -3.4642353E-01 AU
 BOTTOM OF VIRTUAL BANDS - BAND    201; K    1; EIG -2.6903996E-02 AU
 DIRECT ENERGY BAND GAP:   8.6946 eV
 TTTTTTTTTTTTTTTTTTTTTTTTTTTTTT PDIG        TELAPSE      482.42 TCPU      481.93
 CHARGE NORMALIZATION FACTOR   1.00000000
 TOTAL ATOMIC CHARGES:
   8.8825893   8.8825893   8.9065500   8.9065500   8.9111123   8.9111123
   8.9402603   8.9402603   8.9427323   8.9427323   8.8891006   8.8891006
   8.9196546   8.9196546   8.9513724   8.9513724   8.9362963   8.9362963
   8.9285341   8.9285341   8.9266903   8.9266903   8.9355184   8.9355184
   8.9341700   8.9341700   8.9308568   8.9308568   8.8973122   8.8973122
   8.9009635   8.9009635   8.9479257   8.9479257   8.9422018   8.9422018
   8.9319303   8.9319303   8.9367390   8.9367390   0.5730628   0.5730628
   0.5470528   0.5470528   0.5416694   0.5416694   0.5498780   0.5498780
   0.5533200   0.5533200   0.5514400   0.5514400   0.5337378   0.5337378
   0.5420940   0.5420940   0.5274462   0.5274462   0.5251278   0.5251278
   0.5305574   0.5305574   0.5383658   0.5383658   0.5499827   0.5499827
   0.5313766   0.5313766   0.5322552   0.5322552   0.5279244   0.5279244
   0.5279870   0.5279870   0.5408642   0.5408642   0.5323698   0.5323698
   0.5275172   0.5275172   0.5520548   0.5520548   0.5391858   0.5391858
   0.5289753   0.5289753   0.5315894   0.5315894   0.5288910   0.5288910
   0.5347415   0.5347415   0.5379615   0.5379615   0.5393543   0.5393543
   0.5229487   0.5229487   0.5739072   0.5739072   0.5766964   0.5766964
   0.5237813   0.5237813   0.5237706   0.5237706   0.5109670   0.5109670
   0.5304482   0.5304482   0.5247326   0.5247326   0.5324888   0.5324888
   0.5426715   0.5426715   0.5310715   0.5310715   0.5372233   0.5372233
 TTTTTTTTTTTTTTTTTTTTTTTTTTTTTT MOQGAD      TELAPSE      482.44 TCPU      481.94
 TTTTTTTTTTTTTTTTTTTTTTTTTTTTTT SHELLXN     TELAPSE      528.04 TCPU      527.54
 TTTTTTTTTTTTTTTTTTTTTTTTTTTTTT MONMO3      TELAPSE      533.40 TCPU      532.90
 NUMERICALLY INTEGRATED DENSITY    400.0000669330
 TTTTTTTTTTTTTTTTTTTTTTTTTTTTTT NUMDFT      TELAPSE      540.08 TCPU      539.58
 CYC   8 ETOT(AU) -3.051824806146E+03 DETOT  2.65E-07 tst  1.91E-09 PX  2.54E-04
 TTTTTTTTTTTTTTTTTTTTTTTTTTTTTT DIIS        TELAPSE      540.15 TCPU      539.65
 DIIS TEST: 0.29857E-05 AT SCF   CYCLE   8 - DIIS ACTIVE - HISTORY:     8 CYCLES
 TTTTTTTTTTTTTTTTTTTTTTTTTTTTTT FDIK        TELAPSE      540.24 TCPU      539.73
 INSULATING STATE
 TOP OF VALENCE BANDS -    BAND    200; K    1; EIG -3.4647101E-01 AU
 BOTTOM OF VIRTUAL BANDS - BAND    201; K    1; EIG -2.6902494E-02 AU
 DIRECT ENERGY BAND GAP:   8.6959 eV
 TTTTTTTTTTTTTTTTTTTTTTTTTTTTTT PDIG        TELAPSE      540.26 TCPU      539.75
 CHARGE NORMALIZATION FACTOR   1.00000000
 TOTAL ATOMIC CHARGES:
   8.8824115   8.8824115   8.9066435   8.9066435   8.9109600   8.9109600
   8.9401338   8.9401338   8.9430845   8.9430845   8.8889562   8.8889562
   8.9196341   8.9196341   8.9512095   8.9512095   8.9362508   8.9362508
   8.9286314   8.9286314   8.9268594   8.9268594   8.9355641   8.9355641
   8.9343442   8.9343442   8.9309558   8.9309558   8.8972028   8.8972028
   8.9010517   8.9010517   8.9476769   8.9476769   8.9420906   8.9420906
   8.9319112   8.9319112   8.9369429   8.9369429   0.5731226   0.5731226
   0.5471210   0.5471210   0.5416460   0.5416460   0.5498432   0.5498432
   0.5533903   0.5533903   0.5515034   0.5515034   0.5337734   0.5337734
   0.5421323   0.5421323   0.5273834   0.5273834   0.5250425   0.5250425
   0.5306076   0.5306076   0.5384097   0.5384097   0.5499817   0.5499817
   0.5313768   0.5313768   0.5322577   0.5322577   0.5279329   0.5279329
   0.5279930   0.5279930   0.5408697   0.5408697   0.5323265   0.5323265
   0.5274895   0.5274895   0.5519939   0.5519939   0.5391334   0.5391334
   0.5289708   0.5289708   0.5315655   0.5315655   0.5288522   0.5288522
   0.5346996   0.5346996   0.5379509   0.5379509   0.5393295   0.5393295
   0.5229448   0.5229448   0.5739468   0.5739468   0.5766796   0.5766796
   0.5237862   0.5237862   0.5238164   0.5238164   0.5110111   0.5110111
   0.5304911   0.5304911   0.5247758   0.5247758   0.5324733   0.5324733
   0.5426507   0.5426507   0.5310314   0.5310314   0.5371789   0.5371789
 TTTTTTTTTTTTTTTTTTTTTTTTTTTTTT MOQGAD      TELAPSE      540.28 TCPU      539.76
 TTTTTTTTTTTTTTTTTTTTTTTTTTTTTT SHELLXN     TELAPSE      586.47 TCPU      585.93
 +++ ENERGIES IN A.U. +++
 ::: EXT EL-POLE                                  -3.1163495492820E+03
 ::: EXT EL-SPHEROPOLE                             3.7071937106580E+01
 ::: BIELET ZONE E-E                               3.9356901143361E+03
 ::: TOTAL E-E                                     8.5641250216074E+02
 ::: TOTAL E-N + N-E                              -6.1389773424511E+03
 ::: TOTAL N-N                                    -5.7299472211870E+02
 ::: KINETIC ENERGY                                3.0325959257449E+03
 ::: PSEUDO TOTAL   ENERGY                        -2.8229636366642E+03
 ::: VIRIAL COEFFICIENT                            1.0358005561802E+00
 TTTTTTTTTTTTTTTTTTTTTTTTTTTTTT MONMO3      TELAPSE      591.51 TCPU      590.97
 NUMERICALLY INTEGRATED DENSITY    400.0000669359
 TTTTTTTTTTTTTTTTTTTTTTTTTTTTTT NUMDFT      TELAPSE      598.31 TCPU      597.76
 CYC   9 ETOT(AU) -3.051824806907E+03 DETOT -7.61E-07 tst  5.83E-10 PX  2.54E-04

 == SCF ENDED - CONVERGENCE ON ENERGY      E(AU) -3.0518248069071E+03 CYCLES   9


 ENERGY EXPRESSION=HARTREE+FOCK EXCH*0.00000+(HSE-3c     EXCH)*1.00000+PBEh-3c    CORR


 TOTAL ENERGY(DFT)(AU)(  9) -3.0518248069071E+03 DE-7.6E-07 tester 5.8E-10
 TTTTTTTTTTTTTTTTTTTTTTTTTTTTTT EDFT        TELAPSE      598.31 TCPU      597.76
 
 INFORMATION **** DFTD3 ENERGY **** CALCULATE DFTD3 ENERGY

           DFT-D V3(BJ)
 DF                                         hse3c     
 parameters
 s6       :    1.0000
 s8       :    0.0000
 a1       :    0.4411
 a2       :    4.5182
 k1 k3    :   16.0000   -4.0000
 Cutoff   :   50.2022
 CN-Cutoff:   21.1671
 
 Edisp /kcal,au:   -73.8304 -0.11765621

 E6    /kcal :   -79.2116
 E8    /kcal :     0.0000
 E6(ABC) "   :   5.381211
 
 INFORMATION **** DFTD3 ENERGY **** NORMAL TERMINATION OF DFTD3 MODULE

 GCP ENERGY CALCULATION
  level           hse3c               basis:hse3c
  Nbf            760
  Atoms          120

  Parameters: 
  sigma     1.0000
  eta       1.4086
  alpha     0.2908
  beta      1.9526

  dmp_scal      4.0000
  dmp_exp       6.0000
 cutoffs: 
   distance [bohr] 60.0
   noise    [a.u.] 2.2E-16
 SR-damping   T
 ** gCP correction **
  Egcp:        0.4977807545 / (a.u.) ||     312.3622 / (kcal/mol)
 INFORMATION **** GCP **** NORMAL TERMINATION OF GCP MODULE

 *******************************************************************************

 DFT-D3-GCP DISPERSION AND COUNTERPOISE CORRECTION

 D3 DISPERSION ENERGY (AU)      -1.1765620868694E-01
 GCP ENERGY (AU)                 4.9778075449996E-01
 TOTAL ENERGY + DISP + GCP (AU) -3.0514446823613E+03

 *******************************************************************************

 EIGENVECTORS IN FORTRAN UNIT 10
 TTTTTTTTTTTTTTTTTTTTTTTTTTTTTT END         TELAPSE      603.02 TCPU      602.42
 EEEEEEEEEE TERMINATION  DATE 25 03 2019 TIME 18:01:00.5
NODE    0 CPU TIME =       602.424
NODE    1 CPU TIME =       602.518
NODE    2 CPU TIME =       602.623
NODE    3 CPU TIME =       602.638
NODE    4 CPU TIME =       602.636
NODE    5 CPU TIME =       602.571
NODE    6 CPU TIME =       602.227
NODE    7 CPU TIME =       602.280
    TOTAL CPU TIME =      4819.917
